 Entering Gaussian System, Link 0=g16
 Input=AllylChloride.gjf
 Output=AllylChloride.log
 Initial command:
 /home1/apps/gaussian/16rA.03/g16/l1.exe "/scratch/08052/tg873513/Gau-53601.inp" -scrdir="/scratch/08052/tg873513/"
 Entering Link 1 = /home1/apps/gaussian/16rA.03/g16/l1.exe PID=     53602.
  
 Copyright (c) 1988,1990,1992,1993,1995,1998,2003,2009,2016,
            Gaussian, Inc.  All Rights Reserved.
  
 This is part of the Gaussian(R) 16 program.  It is based on
 the Gaussian(R) 09 system (copyright 2009, Gaussian, Inc.),
 the Gaussian(R) 03 system (copyright 2003, Gaussian, Inc.),
 the Gaussian(R) 98 system (copyright 1998, Gaussian, Inc.),
 the Gaussian(R) 94 system (copyright 1995, Gaussian, Inc.),
 the Gaussian 92(TM) system (copyright 1992, Gaussian, Inc.),
 the Gaussian 90(TM) system (copyright 1990, Gaussian, Inc.),
 the Gaussian 88(TM) system (copyright 1988, Gaussian, Inc.),
 the Gaussian 86(TM) system (copyright 1986, Carnegie Mellon
 University), and the Gaussian 82(TM) system (copyright 1983,
 Carnegie Mellon University). Gaussian is a federally registered
 trademark of Gaussian, Inc.
  
 This software contains proprietary and confidential information,
 including trade secrets, belonging to Gaussian, Inc.
  
 This software is provided under written license and may be
 used, copied, transmitted, or stored only in accord with that
 written license.
  
 The following legend is applicable only to US Government
 contracts under FAR:
  
                    RESTRICTED RIGHTS LEGEND
  
 Use, reproduction and disclosure by the US Government is
 subject to restrictions as set forth in subparagraphs (a)
 and (c) of the Commercial Computer Software - Restricted
 Rights clause in FAR 52.227-19.
  
 Gaussian, Inc.
 340 Quinnipiac St., Bldg. 40, Wallingford CT 06492
  
  
 ---------------------------------------------------------------
 Warning -- This program may not be used in any manner that
 competes with the business of Gaussian, Inc. or will provide
 assistance to any competitor of Gaussian, Inc.  The licensee
 of this program is prohibited from giving any competitor of
 Gaussian, Inc. access to this program.  By using this program,
 the user acknowledges that Gaussian, Inc. is engaged in the
 business of creating and licensing software in the field of
 computational chemistry and represents and warrants to the
 licensee that it is not a competitor of Gaussian, Inc. and that
 it will not use this program in any manner prohibited above.
 ---------------------------------------------------------------
  

 Cite this work as:
 Gaussian 16, Revision A.03,
 M. J. Frisch, G. W. Trucks, H. B. Schlegel, G. E. Scuseria, 
 M. A. Robb, J. R. Cheeseman, G. Scalmani, V. Barone, 
 G. A. Petersson, H. Nakatsuji, X. Li, M. Caricato, A. V. Marenich, 
 J. Bloino, B. G. Janesko, R. Gomperts, B. Mennucci, H. P. Hratchian, 
 J. V. Ortiz, A. F. Izmaylov, J. L. Sonnenberg, D. Williams-Young, 
 F. Ding, F. Lipparini, F. Egidi, J. Goings, B. Peng, A. Petrone, 
 T. Henderson, D. Ranasinghe, V. G. Zakrzewski, J. Gao, N. Rega, 
 G. Zheng, W. Liang, M. Hada, M. Ehara, K. Toyota, R. Fukuda, 
 J. Hasegawa, M. Ishida, T. Nakajima, Y. Honda, O. Kitao, H. Nakai, 
 T. Vreven, K. Throssell, J. A. Montgomery, Jr., J. E. Peralta, 
 F. Ogliaro, M. J. Bearpark, J. J. Heyd, E. N. Brothers, K. N. Kudin, 
 V. N. Staroverov, T. A. Keith, R. Kobayashi, J. Normand, 
 K. Raghavachari, A. P. Rendell, J. C. Burant, S. S. Iyengar, 
 J. Tomasi, M. Cossi, J. M. Millam, M. Klene, C. Adamo, R. Cammi, 
 J. W. Ochterski, R. L. Martin, K. Morokuma, O. Farkas, 
 J. B. Foresman, and D. J. Fox, Gaussian, Inc., Wallingford CT, 2016.
 
 ******************************************
 Gaussian 16:  ES64L-G16RevA.03 25-Dec-2016
                10-May-2021 
 ******************************************
 %chk=AllylChloride.chk
 %nprocs=60
 Will use up to   60 processors via shared memory.
 %mem=60GB
 ----------------------------------------------------------------------
 # opt=(maxcycles=85) freq=noraman hf/3-21g scrf=(smd,solvent=dmso) geo
 m=connectivity
 ----------------------------------------------------------------------
 1/6=85,18=20,19=15,26=6,38=1,57=2/1,3;
 2/9=110,12=2,17=6,18=5,40=1/2;
 3/5=5,11=9,25=1,30=1,70=32201,71=1,72=21/1,2,3;
 4//1;
 5/5=2,38=5,53=21/2;
 6/7=2,8=2,9=2,10=2,28=1/1;
 7//1,2,3,16;
 1/6=85,18=20,19=15,26=6/3(2);
 2/9=110/2;
 99//99;
 2/9=110/2;
 3/5=5,11=9,25=1,30=1,70=32205,71=1,72=21/1,2,3;
 4/5=5,16=3,69=1/1;
 5/5=2,38=5,53=21/2;
 7//1,2,3,16;
 1/6=85,18=20,19=15,26=6/3(-5);
 2/9=110/2;
 6/7=2,8=2,9=2,10=2,19=2,28=1/1;
 99/9=1/99;
 -------------------
 Title Card Required
 -------------------
 Symbolic Z-matrix:
 Charge =  0 Multiplicity = 1
 C                     0.00013  -1.1381    0. 
 H                     0.92465  -1.67677  0. 
 H                    -0.92758  -1.67126   0. 
 C                     1.33347   0.67889   0.03043 
 C                     0.00014  -0.0911   0. 
 H                    -0.92627   0.4439   -0.02114 
 H                     1.90169   0.37454   0.88448 
 H                     1.88759   0.46792  -0.86027 
 Cl                    1.01121   2.40652   0.1255 
 

 GradGradGradGradGradGradGradGradGradGradGradGradGradGradGradGradGradGrad
 Berny optimization.
 Initialization pass.
                           ----------------------------
                           !    Initial Parameters    !
                           ! (Angstroms and Degrees)  !
 --------------------------                            --------------------------
 ! Name  Definition              Value          Derivative Info.                !
 --------------------------------------------------------------------------------
 ! R1    R(1,2)                  1.07           estimate D2E/DX2                !
 ! R2    R(1,3)                  1.07           estimate D2E/DX2                !
 ! R3    R(1,5)                  1.047          estimate D2E/DX2                !
 ! R4    R(4,5)                  1.54           estimate D2E/DX2                !
 ! R5    R(4,7)                  1.07           estimate D2E/DX2                !
 ! R6    R(4,8)                  1.07           estimate D2E/DX2                !
 ! R7    R(4,9)                  1.76           estimate D2E/DX2                !
 ! R8    R(5,6)                  1.07           estimate D2E/DX2                !
 ! A1    A(2,1,3)              119.8865         estimate D2E/DX2                !
 ! A2    A(2,1,5)              120.2269         estimate D2E/DX2                !
 ! A3    A(3,1,5)              119.8865         estimate D2E/DX2                !
 ! A4    A(5,4,7)              109.4712         estimate D2E/DX2                !
 ! A5    A(5,4,8)              109.4712         estimate D2E/DX2                !
 ! A6    A(5,4,9)              109.4712         estimate D2E/DX2                !
 ! A7    A(7,4,8)              109.4712         estimate D2E/DX2                !
 ! A8    A(7,4,9)              109.4712         estimate D2E/DX2                !
 ! A9    A(8,4,9)              109.4712         estimate D2E/DX2                !
 ! A10   A(1,5,4)              120.0            estimate D2E/DX2                !
 ! A11   A(1,5,6)              120.0            estimate D2E/DX2                !
 ! A12   A(4,5,6)              120.0            estimate D2E/DX2                !
 ! D1    D(2,1,5,4)             -1.3075         estimate D2E/DX2                !
 ! D2    D(2,1,5,6)            178.6925         estimate D2E/DX2                !
 ! D3    D(3,1,5,4)            178.6925         estimate D2E/DX2                !
 ! D4    D(3,1,5,6)             -1.3075         estimate D2E/DX2                !
 ! D5    D(7,4,5,1)            -56.4619         estimate D2E/DX2                !
 ! D6    D(7,4,5,6)            123.5381         estimate D2E/DX2                !
 ! D7    D(8,4,5,1)             63.5381         estimate D2E/DX2                !
 ! D8    D(8,4,5,6)           -116.4619         estimate D2E/DX2                !
 ! D9    D(9,4,5,1)           -176.4619         estimate D2E/DX2                !
 ! D10   D(9,4,5,6)              3.5381         estimate D2E/DX2                !
 --------------------------------------------------------------------------------
 Trust Radius=3.00D-01 FncErr=5.00D-06 GrdErr=5.00D-06 EigMax=2.50D+02 EigMin=1.00D-04
 Number of steps in this run=     85 maximum allowed number of steps=    100.
 GradGradGradGradGradGradGradGradGradGradGradGradGradGradGradGradGradGrad

                          Input orientation:                          
 ---------------------------------------------------------------------
 Center     Atomic      Atomic             Coordinates (Angstroms)
 Number     Number       Type             X           Y           Z
 ---------------------------------------------------------------------
      1          6           0        0.000132   -1.138103    0.000000
      2          1           0        0.924650   -1.676774   -0.000000
      3          1           0       -0.927575   -1.671262    0.000000
      4          6           0        1.333474    0.678890    0.030432
      5          6           0        0.000138   -0.091103   -0.000000
      6          1           0       -0.926265    0.443902   -0.021144
      7          1           0        1.901693    0.374535    0.884478
      8          1           0        1.887587    0.467919   -0.860270
      9         17           0        1.011207    2.406520    0.125505
 ---------------------------------------------------------------------
                    Distance matrix (angstroms):
                    1          2          3          4          5
     1  C    0.000000
     2  H    1.070000   0.000000
     3  H    1.070000   1.852234   0.000000
     4  C    2.253927   2.391070   3.261362   0.000000
     5  C    1.047000   1.835504   1.832363   1.540000   0.000000
     6  H    1.833412   2.814889   2.115270   2.272510   1.070000
     7  H    2.585790   2.438193   3.601715   1.070000   2.148263
     8  H    2.623329   2.503402   3.638859   1.070000   2.148263
     9  Cl   3.688140   4.086139   4.516961   1.760000   2.697431
                    6          7          8          9
     6  H    0.000000
     7  H    2.970238   0.000000
     8  H    2.936405   1.747303   0.000000
     9  Cl   2.761734   2.344774   2.344774   0.000000
 Stoichiometry    C3H5Cl
 Framework group  C1[X(C3H5Cl)]
 Deg. of freedom    21
 Full point group                 C1      NOp   1
 Largest Abelian subgroup         C1      NOp   1
 Largest concise Abelian subgroup C1      NOp   1
                         Standard orientation:                         
 ---------------------------------------------------------------------
 Center     Atomic      Atomic             Coordinates (Angstroms)
 Number     Number       Type             X           Y           Z
 ---------------------------------------------------------------------
      1          6           0       -2.144601   -0.056831   -0.018674
      2          1           0       -2.378861    0.986958   -0.041599
      3          1           0       -2.932451   -0.780608   -0.037112
      4          6           0       -0.010139    0.666300    0.017972
      5          6           0       -1.147107   -0.372397    0.021738
      6          1           0       -0.917671   -1.416586    0.065655
      7          1           0       -0.097829    1.287948   -0.848495
      8          1           0       -0.076108    1.270508    0.898586
      9         17           0        1.542000   -0.162979   -0.009603
 ---------------------------------------------------------------------
 Rotational constants (GHZ):          30.8113493           2.9706115           2.7555820
 Standard basis: 3-21G (6D, 7F)
 There are    50 symmetry adapted cartesian basis functions of A   symmetry.
 There are    50 symmetry adapted basis functions of A   symmetry.
    50 basis functions,    87 primitive gaussians,    50 cartesian basis functions
    20 alpha electrons       20 beta electrons
       nuclear repulsion energy       150.6846062018 Hartrees.
 NAtoms=    9 NActive=    9 NUniq=    9 SFac= 1.00D+00 NAtFMM=   60 NAOKFM=F Big=F
 Integral buffers will be    131072 words long.
 Raffenetti 1 integral format.
 Two-electron integral symmetry is turned on.
 ------------------------------------------------------------------------------
 Polarizable Continuum Model (PCM)
 =================================
 Model                : PCM.
 Atomic radii         : SMD-Coulomb.
 Polarization charges : Total charges.
 Charge compensation  : None.
 Solution method      : On-the-fly selection.
 Cavity type          : VdW (van der Waals Surface) (Alpha=1.000).
 Cavity algorithm     : GePol (No added spheres)
                        Default sphere list used, NSphG=    9.
                        Lebedev-Laikov grids with approx.  5.0 points / Ang**2.
                        Smoothing algorithm: York/Karplus (Gamma=1.0000).
                        Polarization charges: spherical gaussians, with
                                              point-specific exponents (IZeta= 3).
                        Self-potential: point-specific (ISelfS= 7).
                        Self-field    : sphere-specific E.n sum rule (ISelfD= 2).
 1st derivatives      : Analytical E(r).r(x)/FMM algorithm (CHGder, D1EAlg=3).
                        Cavity 1st derivative terms included.
 Solvent              : DiMethylSulfoxide, Eps=  46.826000 Eps(inf)=   2.007889
 ------------------------------------------------------------------------------
 Spheres list:
 ISph  on   Nord     Re0    Alpha      Xe            Ye            Ze
    1   C      1    1.8500  1.000     -2.144601     -0.056831     -0.018674
    2   H      2    1.2000  1.000     -2.378861      0.986958     -0.041599
    3   H      3    1.2000  1.000     -2.932451     -0.780608     -0.037112
    4   C      4    1.8500  1.000     -0.010139      0.666300      0.017972
    5   C      5    1.8500  1.000     -1.147107     -0.372397      0.021738
    6   H      6    1.2000  1.000     -0.917671     -1.416586      0.065655
    7   H      7    1.2000  1.000     -0.097829      1.287948     -0.848495
    8   H      8    1.2000  1.000     -0.076108      1.270508      0.898586
    9  Cl      9    2.3800  1.000      1.542000     -0.162979     -0.009603
 ------------------------------------------------------------------------------
 ------------------------------------------------------------------------------
 Atomic radii for non-electrostatic terms: SMD-CDS.
 ------------------------------------------------------------------------------
 Nuclear repulsion after PCM non-electrostatic terms =      150.6851358288 Hartrees.
 One-electron integrals computed using PRISM.
 NBasis=    50 RedAO= T EigKep=  3.55D-03  NBF=    50
 NBsUse=    50 1.00D-06 EigRej= -1.00D+00 NBFU=    50
 ExpMin= 1.67D-01 ExpMax= 1.38D+03 ExpMxC= 1.38D+03 IAcc=3 IRadAn=         5 AccDes= 0.00D+00
 Harris functional with IExCor=  205 and IRadAn=       5 diagonalized for initial guess.
 HarFok:  IExCor=  205 AccDes= 0.00D+00 IRadAn=         5 IDoV= 1 UseB2=F ITyADJ=14
 ICtDFT=  3500011 ScaDFX=  1.000000  1.000000  1.000000  1.000000
 FoFCou: FMM=F IPFlag=           0 FMFlag=      100000 FMFlg1=           0
         NFxFlg=           0 DoJE=T BraDBF=F KetDBF=T FulRan=T
         wScrn=  0.000000 ICntrl=       500 IOpCl=  0 I1Cent=   200000004 NGrid=           0
         NMat0=    1 NMatS0=      1 NMatT0=    0 NMatD0=    1 NMtDS0=    0 NMtDT0=    0
 Petite list used in FoFCou.
 Keep R1 ints in memory in canonical form, NReq=12892557.
 Requested convergence on RMS density matrix=1.00D-08 within 128 cycles.
 Requested convergence on MAX density matrix=1.00D-06.
 Requested convergence on             energy=1.00D-06.
 No special actions if energy rises.
 Inv3:  Mode=1 IEnd=     2462508.
 Iteration    1 A*A^-1 deviation from unit magnitude is 2.66D-15 for    239.
 Iteration    1 A*A^-1 deviation from orthogonality  is 1.89D-15 for    750    375.
 Iteration    1 A^-1*A deviation from unit magnitude is 2.89D-15 for    209.
 Iteration    1 A^-1*A deviation from orthogonality  is 2.19D-15 for    504    226.
 Error on total polarization charges =  0.01441
 SCF Done:  E(RHF) =  -572.969559538     A.U. after   12 cycles
            NFock= 12  Conv=0.54D-08     -V/T= 1.9978
 SMD-CDS (non-electrostatic) energy       (kcal/mol) =       0.33
 (included in total energy above)

 **********************************************************************

            Population analysis using the SCF density.

 **********************************************************************

 Orbital symmetries:
       Occupied  (A) (A) (A) (A) (A) (A) (A) (A) (A) (A) (A) (A)
                 (A) (A) (A) (A) (A) (A) (A) (A)
       Virtual   (A) (A) (A) (A) (A) (A) (A) (A) (A) (A) (A) (A)
                 (A) (A) (A) (A) (A) (A) (A) (A) (A) (A) (A) (A)
                 (A) (A) (A) (A) (A) (A)
 The electronic state is 1-A.
 Alpha  occ. eigenvalues -- -104.08652 -11.22479 -11.14213 -11.11910 -10.48337
 Alpha  occ. eigenvalues --   -7.94743  -7.94298  -7.94287  -1.17747  -1.11954
 Alpha  occ. eigenvalues --   -0.90669  -0.74958  -0.67888  -0.63602  -0.62715
 Alpha  occ. eigenvalues --   -0.53103  -0.47155  -0.46265  -0.42492  -0.42232
 Alpha virt. eigenvalues --    0.22083   0.24385   0.29043   0.32884   0.33932
 Alpha virt. eigenvalues --    0.37577   0.39966   0.49420   0.60269   0.73003
 Alpha virt. eigenvalues --    0.76995   0.80922   0.82816   0.90572   0.95896
 Alpha virt. eigenvalues --    1.00678   1.03587   1.08513   1.17411   1.19802
 Alpha virt. eigenvalues --    1.22895   1.32681   1.33599   1.40852   1.41940
 Alpha virt. eigenvalues --    1.59824   1.63211   1.88537   2.15534   2.43213
          Condensed to atoms (all electrons):
               1          2          3          4          5          6
     1  C    5.405962   0.440783   0.427903  -0.155680   0.374602  -0.064466
     2  H    0.440783   0.441718  -0.010980  -0.011458  -0.097714   0.004506
     3  H    0.427903  -0.010980   0.431161   0.005246  -0.083213  -0.009260
     4  C   -0.155680  -0.011458   0.005246   5.699239   0.274869  -0.027934
     5  C    0.374602  -0.097714  -0.083213   0.274869   5.488308   0.423274
     6  H   -0.064466   0.004506  -0.009260  -0.027934   0.423274   0.412846
     7  H    0.001478   0.001621  -0.000092   0.368758  -0.043471   0.001070
     8  H    0.000792   0.001525  -0.000109   0.366647  -0.042579   0.001053
     9  Cl   0.010518   0.000225  -0.000154   0.137107  -0.092150  -0.005499
               7          8          9
     1  C    0.001478   0.000792   0.010518
     2  H    0.001621   0.001525   0.000225
     3  H   -0.000092  -0.000109  -0.000154
     4  C    0.368758   0.366647   0.137107
     5  C   -0.043471  -0.042579  -0.092150
     6  H    0.001070   0.001053  -0.005499
     7  H    0.424251  -0.019370  -0.041886
     8  H   -0.019370   0.426012  -0.041841
     9  Cl  -0.041886  -0.041841  17.082259
 Mulliken charges:
               1
     1  C   -0.441893
     2  H    0.229774
     3  H    0.239498
     4  C   -0.656795
     5  C   -0.201926
     6  H    0.264410
     7  H    0.307641
     8  H    0.307871
     9  Cl  -0.048580
 Sum of Mulliken charges =   0.00000
 Mulliken charges with hydrogens summed into heavy atoms:
               1
     1  C    0.027379
     4  C   -0.041283
     5  C    0.062484
     9  Cl  -0.048580
 Electronic spatial extent (au):  <R**2>=            440.9135
 Charge=              0.0000 electrons
 Dipole moment (field-independent basis, Debye):
    X=             -2.8838    Y=              1.3200    Z=              0.0482  Tot=              3.1719
 Quadrupole moment (field-independent basis, Debye-Ang):
   XX=            -34.5614   YY=            -29.0686   ZZ=            -32.7505
   XY=              0.6259   XZ=              0.0830   YZ=             -0.0495
 Traceless Quadrupole moment (field-independent basis, Debye-Ang):
   XX=             -2.4345   YY=              3.0582   ZZ=             -0.6237
   XY=              0.6259   XZ=              0.0830   YZ=             -0.0495
 Octapole moment (field-independent basis, Debye-Ang**2):
  XXX=             -6.6936  YYY=              0.3011  ZZZ=              0.0837  XYY=             -2.2080
  XXY=             -2.3445  XXZ=             -0.2490  XZZ=              2.4541  YZZ=              2.0111
  YYZ=              0.0578  XYZ=              0.0821
 Hexadecapole moment (field-independent basis, Debye-Ang**3):
 XXXX=           -454.7696 YYYY=            -74.5967 ZZZZ=            -39.4478 XXXY=              1.5164
 XXXZ=              0.6347 YYYX=              0.6598 YYYZ=             -0.2656 ZZZX=              0.0092
 ZZZY=              0.0892 XXYY=            -83.9019 XXZZ=            -90.3839 YYZZ=            -18.3631
 XXYZ=              0.0814 YYXZ=              0.0157 ZZXY=             -0.5598
 N-N= 1.506851358288D+02 E-N=-1.661102436156D+03  KE= 5.742244328602D+02
 D1PCM: PCM CHGder 1st derivatives, ID1Alg=3 FixD1E=F DoIter=F DoCFld=F I1PDM=0.
 Calling FoFJK, ICntrl=      2127 FMM=F ISym2X=0 I1Cent= 0 IOpClX= 0 NMat=1 NMatS=1 NMatT=0.
 ***** Axes restored to original set *****
 -------------------------------------------------------------------
 Center     Atomic                   Forces (Hartrees/Bohr)
 Number     Number              X              Y              Z
 -------------------------------------------------------------------
      1        6          -0.005566020   -0.795007687   -0.000300767
      2        1          -0.002245154   -0.022135643    0.001334211
      3        1           0.003978145   -0.019812260   -0.001420552
      4        6          -0.015234266   -0.044722524   -0.004651347
      5        6           0.010987485    0.795794727    0.000724888
      6        1           0.004771941    0.020966652    0.001059725
      7        1           0.002639353    0.003121123    0.005354922
      8        1           0.003061087    0.004004091   -0.005228785
      9       17          -0.002392571    0.057791520    0.003127706
 -------------------------------------------------------------------
 Cartesian Forces:  Max     0.795794727 RMS     0.217098440

 GradGradGradGradGradGradGradGradGradGradGradGradGradGradGradGradGradGrad
 Berny optimization.
 FormGI is forming the generalized inverse of G from B-inverse, IUseBI=4.
 Internal  Forces:  Max     0.836963130 RMS     0.153521339
 Search for a local minimum.
 Step number   1 out of a maximum of   85
 All quantities printed in internal units (Hartrees-Bohrs-Radians)
 Mixed Optimization -- RFO/linear search
 Second derivative matrix not updated -- first step.
 ITU=  0
     Eigenvalues ---    0.00237   0.02845   0.06758   0.06758   0.07243
     Eigenvalues ---    0.07548   0.16000   0.16000   0.16000   0.16000
     Eigenvalues ---    0.16000   0.22000   0.22528   0.28519   0.29539
     Eigenvalues ---    0.37230   0.37230   0.37230   0.37230   0.37230
     Eigenvalues ---    2.43054
 RFO step:  Lambda=-2.72085891D-01 EMin= 2.36824199D-03
 Linear search not attempted -- first point.
 Maximum step size (   0.300) exceeded in Quadratic search.
    -- Step size scaled by   0.860
 Iteration  1 RMS(Cart)=  0.08092863 RMS(Int)=  0.01216919
 Iteration  2 RMS(Cart)=  0.01690534 RMS(Int)=  0.00005294
 Iteration  3 RMS(Cart)=  0.00004963 RMS(Int)=  0.00002920
 Iteration  4 RMS(Cart)=  0.00000000 RMS(Int)=  0.00002920
 Variable       Old X    -DE/DX   Delta X   Delta X   Delta X     New X
                                 (Linear)    (Quad)   (Total)
    R1        2.02201   0.00921   0.00000   0.01229   0.01229   2.03430
    R2        2.02201   0.00642   0.00000   0.00857   0.00857   2.03058
    R3        1.97854   0.83696   0.00000   0.26641   0.26641   2.24495
    R4        2.91018  -0.00026   0.00000  -0.00041  -0.00041   2.90977
    R5        2.02201   0.00478   0.00000   0.00639   0.00639   2.02839
    R6        2.02201   0.00515   0.00000   0.00687   0.00687   2.02888
    R7        3.32592   0.05734   0.00000   0.08692   0.08692   3.41284
    R8        2.02201   0.00633   0.00000   0.00845   0.00845   2.03046
    A1        2.09241  -0.02657   0.00000  -0.05290  -0.05290   2.03952
    A2        2.09836   0.01438   0.00000   0.02863   0.02863   2.12698
    A3        2.09241   0.01219   0.00000   0.02427   0.02427   2.11668
    A4        1.91063   0.00022   0.00000   0.00133   0.00129   1.91192
    A5        1.91063   0.00111   0.00000   0.00313   0.00308   1.91371
    A6        1.91063   0.01794   0.00000   0.03070   0.03062   1.94126
    A7        1.91063  -0.00036   0.00000  -0.00028  -0.00028   1.91035
    A8        1.91063  -0.00932   0.00000  -0.01722  -0.01728   1.89335
    A9        1.91063  -0.00958   0.00000  -0.01766  -0.01775   1.89289
   A10        2.09440   0.02035   0.00000   0.03557   0.03557   2.12996
   A11        2.09440   0.01060   0.00000   0.02358   0.02358   2.11797
   A12        2.09440  -0.03095   0.00000  -0.05914  -0.05914   2.03525
    D1       -0.02282   0.00130   0.00000   0.00332   0.00333  -0.01949
    D2        3.11877   0.00104   0.00000   0.00260   0.00260   3.12137
    D3        3.11877   0.00137   0.00000   0.00350   0.00351   3.12228
    D4       -0.02282   0.00112   0.00000   0.00278   0.00278  -0.02005
    D5       -0.98545  -0.00031   0.00000  -0.00152  -0.00149  -0.98694
    D6        2.15615  -0.00006   0.00000  -0.00080  -0.00079   2.15536
    D7        1.10895   0.00007   0.00000   0.00087   0.00085   1.10980
    D8       -2.03264   0.00032   0.00000   0.00159   0.00155  -2.03109
    D9       -3.07984  -0.00001   0.00000  -0.00004  -0.00002  -3.07987
   D10        0.06175   0.00024   0.00000   0.00068   0.00068   0.06243
         Item               Value     Threshold  Converged?
 Maximum Force            0.836963     0.000450     NO 
 RMS     Force            0.153521     0.000300     NO 
 Maximum Displacement     0.300771     0.001800     NO 
 RMS     Displacement     0.097238     0.001200     NO 
 Predicted change in Energy=-1.456359D-01
 GradGradGradGradGradGradGradGradGradGradGradGradGradGradGradGradGradGrad

                          Input orientation:                          
 ---------------------------------------------------------------------
 Center     Atomic      Atomic             Coordinates (Angstroms)
 Number     Number       Type             X           Y           Z
 ---------------------------------------------------------------------
      1          6           0       -0.020874   -1.243981   -0.000741
      2          1           0        0.878266   -1.835935    0.000955
      3          1           0       -0.953452   -1.777755   -0.003810
      4          6           0        1.335831    0.726135    0.030110
      5          6           0        0.010053   -0.056409    0.000523
      6          1           0       -0.892441    0.526329   -0.019748
      7          1           0        1.909753    0.427993    0.886772
      8          1           0        1.895137    0.522666   -0.863463
      9         17           0        1.042769    2.505482    0.128404
 ---------------------------------------------------------------------
                    Distance matrix (angstroms):
                    1          2          3          4          5
     1  C    0.000000
     2  H    1.076506   0.000000
     3  H    1.074535   1.832648   0.000000
     4  C    2.392270   2.602771   3.392850   0.000000
     5  C    1.187976   1.980027   1.972662   1.539785   0.000000
     6  H    1.973319   2.952308   2.304947   2.237768   1.074471
     7  H    2.703793   2.640835   3.722419   1.073380   2.151497
     8  H    2.745255   2.710026   3.761037   1.073637   2.152984
     9  Cl   3.899550   4.346402   4.727420   1.805997   2.765165
                    6          7          8          9
     6  H    0.000000
     7  H    2.946818   0.000000
     8  H    2.912466   1.752855   0.000000
     9  Cl   2.772009   2.375446   2.375267   0.000000
 Stoichiometry    C3H5Cl
 Framework group  C1[X(C3H5Cl)]
 Deg. of freedom    21
 Full point group                 C1      NOp   1
 Largest Abelian subgroup         C1      NOp   1
 Largest concise Abelian subgroup C1      NOp   1
                         Standard orientation:                         
 ---------------------------------------------------------------------
 Center     Atomic      Atomic             Coordinates (Angstroms)
 Number     Number       Type             X           Y           Z
 ---------------------------------------------------------------------
      1          6           0       -2.290016   -0.055190   -0.019836
      2          1           0       -2.587321    0.979116   -0.046019
      3          1           0       -3.076763   -0.786928   -0.034466
      4          6           0       -0.005733    0.654340    0.019898
      5          6           0       -1.147708   -0.378530    0.023415
      6          1           0       -0.860846   -1.413048    0.067822
      7          1           0       -0.089426    1.279248   -0.848795
      8          1           0       -0.064883    1.260911    0.903792
      9         17           0        1.608234   -0.155471   -0.010776
 ---------------------------------------------------------------------
 Rotational constants (GHZ):          31.3184222           2.7035892           2.5280082
 Standard basis: 3-21G (6D, 7F)
 There are    50 symmetry adapted cartesian basis functions of A   symmetry.
 There are    50 symmetry adapted basis functions of A   symmetry.
    50 basis functions,    87 primitive gaussians,    50 cartesian basis functions
    20 alpha electrons       20 beta electrons
       nuclear repulsion energy       144.9043887383 Hartrees.
 NAtoms=    9 NActive=    9 NUniq=    9 SFac= 1.00D+00 NAtFMM=   60 NAOKFM=F Big=F
 Integral buffers will be    131072 words long.
 Raffenetti 1 integral format.
 Two-electron integral symmetry is turned on.
 ------------------------------------------------------------------------------
 Polarizable Continuum Model (PCM)
 =================================
 Model                : PCM.
 Atomic radii         : SMD-Coulomb.
 Polarization charges : Total charges.
 Charge compensation  : None.
 Solution method      : On-the-fly selection.
 Cavity type          : VdW (van der Waals Surface) (Alpha=1.000).
 Cavity algorithm     : GePol (No added spheres)
                        Default sphere list used, NSphG=    9.
                        Lebedev-Laikov grids with approx.  5.0 points / Ang**2.
                        Smoothing algorithm: York/Karplus (Gamma=1.0000).
                        Polarization charges: spherical gaussians, with
                                              point-specific exponents (IZeta= 3).
                        Self-potential: point-specific (ISelfS= 7).
                        Self-field    : sphere-specific E.n sum rule (ISelfD= 2).
 1st derivatives      : Analytical E(r).r(x)/FMM algorithm (CHGder, D1EAlg=3).
                        Cavity 1st derivative terms included.
 Solvent              : DiMethylSulfoxide, Eps=  46.826000 Eps(inf)=   2.007889
 ------------------------------------------------------------------------------
 Spheres list:
 ISph  on   Nord     Re0    Alpha      Xe            Ye            Ze
    1   C      1    1.8500  1.000     -2.290016     -0.055190     -0.019836
    2   H      2    1.2000  1.000     -2.587321      0.979116     -0.046019
    3   H      3    1.2000  1.000     -3.076763     -0.786928     -0.034466
    4   C      4    1.8500  1.000     -0.005733      0.654340      0.019898
    5   C      5    1.8500  1.000     -1.147708     -0.378530      0.023415
    6   H      6    1.2000  1.000     -0.860846     -1.413048      0.067822
    7   H      7    1.2000  1.000     -0.089426      1.279248     -0.848795
    8   H      8    1.2000  1.000     -0.064883      1.260911      0.903792
    9  Cl      9    2.3800  1.000      1.608234     -0.155471     -0.010776
 ------------------------------------------------------------------------------
 ------------------------------------------------------------------------------
 Atomic radii for non-electrostatic terms: SMD-CDS.
 ------------------------------------------------------------------------------
 Nuclear repulsion after PCM non-electrostatic terms =      144.9051106958 Hartrees.
 One-electron integrals computed using PRISM.
 NBasis=    50 RedAO= T EigKep=  7.10D-03  NBF=    50
 NBsUse=    50 1.00D-06 EigRej= -1.00D+00 NBFU=    50
 Initial guess from the checkpoint file:  "AllylChloride.chk"
 B after Tr=    -0.000000    0.000000   -0.000000
         Rot=    0.999997   -0.000337   -0.000276   -0.002436 Ang=  -0.28 deg.
 ExpMin= 1.67D-01 ExpMax= 1.38D+03 ExpMxC= 1.38D+03 IAcc=2 IRadAn=         4 AccDes= 0.00D+00
 Harris functional with IExCor=  205 and IRadAn=       4 diagonalized for initial guess.
 HarFok:  IExCor=  205 AccDes= 0.00D+00 IRadAn=         4 IDoV= 1 UseB2=F ITyADJ=14
 ICtDFT=  3500011 ScaDFX=  1.000000  1.000000  1.000000  1.000000
 FoFCou: FMM=F IPFlag=           0 FMFlag=      100000 FMFlg1=           0
         NFxFlg=           0 DoJE=T BraDBF=F KetDBF=T FulRan=T
         wScrn=  0.000000 ICntrl=       500 IOpCl=  0 I1Cent=   200000004 NGrid=           0
         NMat0=    1 NMatS0=      1 NMatT0=    0 NMatD0=    1 NMtDS0=    0 NMtDT0=    0
 Petite list used in FoFCou.
 Keep R1 ints in memory in canonical form, NReq=12891838.
 Requested convergence on RMS density matrix=1.00D-08 within 128 cycles.
 Requested convergence on MAX density matrix=1.00D-06.
 Requested convergence on             energy=1.00D-06.
 No special actions if energy rises.
 Inv3:  Mode=1 IEnd=     2605872.
 Iteration    1 A*A^-1 deviation from unit magnitude is 3.55D-15 for    195.
 Iteration    1 A*A^-1 deviation from orthogonality  is 1.95D-15 for    570     96.
 Iteration    1 A^-1*A deviation from unit magnitude is 3.33D-15 for    195.
 Iteration    1 A^-1*A deviation from orthogonality  is 1.40D-15 for    551     63.
 Error on total polarization charges =  0.01476
 SCF Done:  E(RHF) =  -573.113462250     A.U. after   12 cycles
            NFock= 12  Conv=0.57D-08     -V/T= 1.9999
 SMD-CDS (non-electrostatic) energy       (kcal/mol) =       0.45
 (included in total energy above)
 D1PCM: PCM CHGder 1st derivatives, ID1Alg=3 FixD1E=F DoIter=F DoCFld=F I1PDM=0.
 Calling FoFJK, ICntrl=      2127 FMM=F ISym2X=0 I1Cent= 0 IOpClX= 0 NMat=1 NMatS=1 NMatT=0.
 ***** Axes restored to original set *****
 -------------------------------------------------------------------
 Center     Atomic                   Forces (Hartrees/Bohr)
 Number     Number              X              Y              Z
 -------------------------------------------------------------------
      1        6          -0.006121787   -0.244003598   -0.000424440
      2        1          -0.002112292   -0.005913161    0.001139251
      3        1           0.002030043   -0.005229150   -0.001182592
      4        6          -0.010779111   -0.045045079   -0.003531244
      5        6           0.013022172    0.252968204    0.001110986
      6        1           0.002245088    0.005184655    0.000748892
      7        1           0.002269163    0.005127189    0.003127996
      8        1           0.002213114    0.005724501   -0.002719650
      9       17          -0.002766390    0.031186439    0.001730801
 -------------------------------------------------------------------
 Cartesian Forces:  Max     0.252968204 RMS     0.068603113

 GradGradGradGradGradGradGradGradGradGradGradGradGradGradGradGradGradGrad
 Berny optimization.
 Using GEDIIS/GDIIS optimizer.
 FormGI is forming the generalized inverse of G from B-inverse, IUseBI=4.
 Internal  Forces:  Max     0.255215495 RMS     0.047096998
 Search for a local minimum.
 Step number   2 out of a maximum of   85
 All quantities printed in internal units (Hartrees-Bohrs-Radians)
 Mixed Optimization -- RFO/linear search
 Update second derivatives using D2CorX and points    1    2
 DE= -1.44D-01 DEPred=-1.46D-01 R= 9.88D-01
 TightC=F SS=  1.41D+00  RLast= 3.00D-01 DXNew= 5.0454D-01 9.0022D-01
 Trust test= 9.88D-01 RLast= 3.00D-01 DXMaxT set to 5.05D-01
 ITU=  1  0
 Use linear search instead of GDIIS.
     Eigenvalues ---    0.00237   0.02990   0.06758   0.06758   0.07031
     Eigenvalues ---    0.07485   0.15987   0.16000   0.16000   0.16000
     Eigenvalues ---    0.16288   0.22101   0.22604   0.28491   0.29623
     Eigenvalues ---    0.37228   0.37230   0.37230   0.37230   0.37273
     Eigenvalues ---    2.15740
 RFO step:  Lambda=-7.25321152D-02 EMin= 2.36824063D-03
 Quartic linear search produced a step of  1.09118.
 Iteration  1 RMS(Cart)=  0.17153575 RMS(Int)=  0.03723405
 Iteration  2 RMS(Cart)=  0.04995733 RMS(Int)=  0.00150256
 Iteration  3 RMS(Cart)=  0.00071908 RMS(Int)=  0.00138711
 Iteration  4 RMS(Cart)=  0.00000033 RMS(Int)=  0.00138711
 Variable       Old X    -DE/DX   Delta X   Delta X   Delta X     New X
                                 (Linear)    (Quad)   (Total)
    R1        2.03430   0.00148   0.01342   0.01597   0.02938   2.06368
    R2        2.03058   0.00084   0.00935   0.01023   0.01959   2.05016
    R3        2.24495   0.25522   0.29070  -0.04235   0.24835   2.49330
    R4        2.90977  -0.00935  -0.00044  -0.05454  -0.05498   2.85479
    R5        2.02839   0.00229   0.00697   0.01533   0.02230   2.05069
    R6        2.02888   0.00234   0.00750   0.01592   0.02342   2.05230
    R7        3.41284   0.03127   0.09485   0.27706   0.37190   3.78474
    R8        2.03046   0.00091   0.00922   0.01048   0.01970   2.05015
    A1        2.03952  -0.00789  -0.05772  -0.20825  -0.26597   1.77355
    A2        2.12698   0.00453   0.03124   0.11500   0.14624   2.27323
    A3        2.11668   0.00336   0.02648   0.09324   0.11972   2.23641
    A4        1.91192   0.00485   0.00140   0.05713   0.05520   1.96712
    A5        1.91371   0.00504   0.00336   0.06388   0.06372   1.97743
    A6        1.94126   0.00222   0.03341   0.05870   0.09090   2.03216
    A7        1.91035  -0.00100  -0.00031   0.01471   0.00981   1.92016
    A8        1.89335  -0.00562  -0.01886  -0.09801  -0.11782   1.77553
    A9        1.89289  -0.00576  -0.01936  -0.09970  -0.12034   1.77255
   A10        2.12996   0.00393   0.03881   0.09202   0.13082   2.26078
   A11        2.11797   0.00371   0.02573   0.11243   0.13813   2.25610
   A12        2.03525  -0.00764  -0.06454  -0.20446  -0.26900   1.76625
    D1       -0.01949   0.00112   0.00364   0.03541   0.03962   0.02013
    D2        3.12137   0.00089   0.00283   0.02503   0.02729  -3.13453
    D3        3.12228   0.00114   0.00383   0.03659   0.04099  -3.11991
    D4       -0.02005   0.00090   0.00303   0.02621   0.02867   0.00862
    D5       -0.98694  -0.00246  -0.00163  -0.04773  -0.05020  -1.03714
    D6        2.15536  -0.00224  -0.00086  -0.03793  -0.04060   2.11476
    D7        1.10980   0.00244   0.00092   0.04516   0.04777   1.15757
    D8       -2.03109   0.00266   0.00169   0.05496   0.05738  -1.97371
    D9       -3.07987  -0.00003  -0.00003  -0.00007   0.00050  -3.07937
   D10        0.06243   0.00019   0.00074   0.00972   0.01011   0.07254
         Item               Value     Threshold  Converged?
 Maximum Force            0.255215     0.000450     NO 
 RMS     Force            0.047097     0.000300     NO 
 Maximum Displacement     0.648027     0.001800     NO 
 RMS     Displacement     0.213705     0.001200     NO 
 Predicted change in Energy=-3.424955D-02
 GradGradGradGradGradGradGradGradGradGradGradGradGradGradGradGradGradGrad

                          Input orientation:                          
 ---------------------------------------------------------------------
 Center     Atomic      Atomic             Coordinates (Angstroms)
 Number     Number       Type             X           Y           Z
 ---------------------------------------------------------------------
      1          6           0       -0.068703   -1.394740    0.000180
      2          1           0        0.691052   -2.178856    0.022878
      3          1           0       -0.983258   -1.977522   -0.030840
      4          6           0        1.314854    0.760637    0.023612
      5          6           0        0.060950   -0.081744    0.006299
      6          1           0       -0.707211    0.684175   -0.010755
      7          1           0        1.936653    0.568477    0.891977
      8          1           0        1.905190    0.670889   -0.883531
      9         17           0        1.055514    2.743209    0.139181
 ---------------------------------------------------------------------
                    Distance matrix (angstroms):
                    1          2          3          4          5
     1  C    0.000000
     2  H    1.092054   0.000000
     3  H    1.084900   1.687227   0.000000
     4  C    2.561333   3.004954   3.575164   0.000000
     5  C    1.319396   2.189790   2.164653   1.510688   0.000000
     6  H    2.174787   3.186411   2.676049   2.023802   1.084894
     7  H    2.944652   3.139219   3.982409   1.085180   2.173815
     8  H    2.990657   3.227500   4.010524   1.086030   2.181622
     9  Cl   4.290199   4.936910   5.144978   2.002799   2.997861
                    6          7          8          9
     6  H    0.000000
     7  H    2.796128   0.000000
     8  H    2.754370   1.778737   0.000000
     9  Cl   2.714646   2.464257   2.462193   0.000000
 Stoichiometry    C3H5Cl
 Framework group  C1[X(C3H5Cl)]
 Deg. of freedom    21
 Full point group                 C1      NOp   1
 Largest Abelian subgroup         C1      NOp   1
 Largest concise Abelian subgroup C1      NOp   1
                         Standard orientation:                         
 ---------------------------------------------------------------------
 Center     Atomic      Atomic             Coordinates (Angstroms)
 Number     Number       Type             X           Y           Z
 ---------------------------------------------------------------------
      1          6           0       -2.521322   -0.096796   -0.020948
      2          1           0       -3.065737    0.848007   -0.080451
      3          1           0       -3.333299   -0.816104   -0.003773
      4          6           0       -0.069631    0.643154    0.025061
      5          6           0       -1.223703   -0.331672    0.021760
      6          1           0       -0.698888   -1.279686    0.075008
      7          1           0       -0.054134    1.276971   -0.855650
      8          1           0       -0.024918    1.252855    0.922684
      9         17           0        1.768524   -0.151186   -0.012533
 ---------------------------------------------------------------------
 Rotational constants (GHZ):          33.5403443           2.2415586           2.1300222
 Standard basis: 3-21G (6D, 7F)
 There are    50 symmetry adapted cartesian basis functions of A   symmetry.
 There are    50 symmetry adapted basis functions of A   symmetry.
    50 basis functions,    87 primitive gaussians,    50 cartesian basis functions
    20 alpha electrons       20 beta electrons
       nuclear repulsion energy       135.7218568114 Hartrees.
 NAtoms=    9 NActive=    9 NUniq=    9 SFac= 1.00D+00 NAtFMM=   60 NAOKFM=F Big=F
 Integral buffers will be    131072 words long.
 Raffenetti 1 integral format.
 Two-electron integral symmetry is turned on.
 ------------------------------------------------------------------------------
 Polarizable Continuum Model (PCM)
 =================================
 Model                : PCM.
 Atomic radii         : SMD-Coulomb.
 Polarization charges : Total charges.
 Charge compensation  : None.
 Solution method      : On-the-fly selection.
 Cavity type          : VdW (van der Waals Surface) (Alpha=1.000).
 Cavity algorithm     : GePol (No added spheres)
                        Default sphere list used, NSphG=    9.
                        Lebedev-Laikov grids with approx.  5.0 points / Ang**2.
                        Smoothing algorithm: York/Karplus (Gamma=1.0000).
                        Polarization charges: spherical gaussians, with
                                              point-specific exponents (IZeta= 3).
                        Self-potential: point-specific (ISelfS= 7).
                        Self-field    : sphere-specific E.n sum rule (ISelfD= 2).
 1st derivatives      : Analytical E(r).r(x)/FMM algorithm (CHGder, D1EAlg=3).
                        Cavity 1st derivative terms included.
 Solvent              : DiMethylSulfoxide, Eps=  46.826000 Eps(inf)=   2.007889
 ------------------------------------------------------------------------------
 Spheres list:
 ISph  on   Nord     Re0    Alpha      Xe            Ye            Ze
    1   C      1    1.8500  1.000     -2.521322     -0.096796     -0.020948
    2   H      2    1.2000  1.000     -3.065737      0.848007     -0.080451
    3   H      3    1.2000  1.000     -3.333299     -0.816104     -0.003773
    4   C      4    1.8500  1.000     -0.069631      0.643154      0.025061
    5   C      5    1.8500  1.000     -1.223703     -0.331672      0.021760
    6   H      6    1.2000  1.000     -0.698888     -1.279686      0.075008
    7   H      7    1.2000  1.000     -0.054134      1.276971     -0.855650
    8   H      8    1.2000  1.000     -0.024918      1.252855      0.922684
    9  Cl      9    2.3800  1.000      1.768524     -0.151186     -0.012533
 ------------------------------------------------------------------------------
 ------------------------------------------------------------------------------
 Atomic radii for non-electrostatic terms: SMD-CDS.
 ------------------------------------------------------------------------------
 Nuclear repulsion after PCM non-electrostatic terms =      135.7228824653 Hartrees.
 One-electron integrals computed using PRISM.
 NBasis=    50 RedAO= T EigKep=  1.19D-02  NBF=    50
 NBsUse=    50 1.00D-06 EigRej= -1.00D+00 NBFU=    50
 Initial guess from the checkpoint file:  "AllylChloride.chk"
 B after Tr=     0.000000   -0.000000   -0.000000
         Rot=    0.999979    0.001873   -0.000276   -0.006255 Ang=   0.75 deg.
 ExpMin= 1.67D-01 ExpMax= 1.38D+03 ExpMxC= 1.38D+03 IAcc=2 IRadAn=         4 AccDes= 0.00D+00
 Harris functional with IExCor=  205 and IRadAn=       4 diagonalized for initial guess.
 HarFok:  IExCor=  205 AccDes= 0.00D+00 IRadAn=         4 IDoV= 1 UseB2=F ITyADJ=14
 ICtDFT=  3500011 ScaDFX=  1.000000  1.000000  1.000000  1.000000
 FoFCou: FMM=F IPFlag=           0 FMFlag=      100000 FMFlg1=           0
         NFxFlg=           0 DoJE=T BraDBF=F KetDBF=T FulRan=T
         wScrn=  0.000000 ICntrl=       500 IOpCl=  0 I1Cent=   200000004 NGrid=           0
         NMat0=    1 NMatS0=      1 NMatT0=    0 NMatD0=    1 NMtDS0=    0 NMtDT0=    0
 Petite list used in FoFCou.
 Keep R1 ints in memory in canonical form, NReq=12889957.
 Requested convergence on RMS density matrix=1.00D-08 within 128 cycles.
 Requested convergence on MAX density matrix=1.00D-06.
 Requested convergence on             energy=1.00D-06.
 No special actions if energy rises.
 Inv3:  Mode=1 IEnd=     2747547.
 Iteration    1 A*A^-1 deviation from unit magnitude is 3.77D-15 for    747.
 Iteration    1 A*A^-1 deviation from orthogonality  is 2.53D-15 for    414      8.
 Iteration    1 A^-1*A deviation from unit magnitude is 3.55D-15 for    747.
 Iteration    1 A^-1*A deviation from orthogonality  is 1.56D-15 for    586     96.
 Error on total polarization charges =  0.01537
 SCF Done:  E(RHF) =  -573.123264528     A.U. after   14 cycles
            NFock= 14  Conv=0.38D-08     -V/T= 2.0015
 SMD-CDS (non-electrostatic) energy       (kcal/mol) =       0.64
 (included in total energy above)
 D1PCM: PCM CHGder 1st derivatives, ID1Alg=3 FixD1E=F DoIter=F DoCFld=F I1PDM=0.
 Calling FoFJK, ICntrl=      2127 FMM=F ISym2X=0 I1Cent= 0 IOpClX= 0 NMat=1 NMatS=1 NMatT=0.
 ***** Axes restored to original set *****
 -------------------------------------------------------------------
 Center     Atomic                   Forces (Hartrees/Bohr)
 Number     Number              X              Y              Z
 -------------------------------------------------------------------
      1        6           0.002651828   -0.023971313    0.000395330
      2        1           0.012558048    0.025103173    0.000051055
      3        1          -0.009648755    0.024637105    0.000185952
      4        6           0.037021233   -0.021466836    0.001547138
      5        6          -0.008349536    0.038069695   -0.000584608
      6        1          -0.020480447   -0.027357199   -0.001098861
      7        1          -0.002833848    0.005432049   -0.004747195
      8        1          -0.004642978    0.004472510    0.005271664
      9       17          -0.006275544   -0.024919184   -0.001020476
 -------------------------------------------------------------------
 Cartesian Forces:  Max     0.038069695 RMS     0.016535981

 GradGradGradGradGradGradGradGradGradGradGradGradGradGradGradGradGradGrad
 Berny optimization.
 Using GEDIIS/GDIIS optimizer.
 FormGI is forming the generalized inverse of G from B-inverse, IUseBI=4.
 Internal  Forces:  Max     0.049222800 RMS     0.016625967
 Search for a local minimum.
 Step number   3 out of a maximum of   85
 All quantities printed in internal units (Hartrees-Bohrs-Radians)
 Mixed Optimization -- RFO/linear search
 Update second derivatives using D2CorX and points    2    3
 DE= -9.80D-03 DEPred=-3.42D-02 R= 2.86D-01
 Trust test= 2.86D-01 RLast= 6.92D-01 DXMaxT set to 5.05D-01
 ITU=  0  1  0
 Use linear search instead of GDIIS.
     Eigenvalues ---    0.00237   0.03608   0.06314   0.06415   0.06756
     Eigenvalues ---    0.06758   0.15448   0.16000   0.16000   0.16002
     Eigenvalues ---    0.17489   0.22094   0.23205   0.24781   0.28591
     Eigenvalues ---    0.37226   0.37230   0.37230   0.37232   0.37330
     Eigenvalues ---    1.40828
 RFO step:  Lambda=-1.87384749D-02 EMin= 2.36802878D-03
 Quartic linear search produced a step of -0.45070.
 Iteration  1 RMS(Cart)=  0.12082921 RMS(Int)=  0.01082609
 Iteration  2 RMS(Cart)=  0.01790963 RMS(Int)=  0.00051565
 Iteration  3 RMS(Cart)=  0.00021871 RMS(Int)=  0.00047730
 Iteration  4 RMS(Cart)=  0.00000004 RMS(Int)=  0.00047730
 Variable       Old X    -DE/DX   Delta X   Delta X   Delta X     New X
                                 (Linear)    (Quad)   (Total)
    R1        2.06368  -0.00929  -0.01324  -0.01083  -0.02407   2.03961
    R2        2.05016  -0.00511  -0.00883  -0.00591  -0.01473   2.03543
    R3        2.49330  -0.02620  -0.11193   0.07677  -0.03516   2.45813
    R4        2.85479  -0.00101   0.02478  -0.02036   0.00442   2.85920
    R5        2.05069  -0.00639  -0.01005  -0.00541  -0.01546   2.03523
    R6        2.05230  -0.00729  -0.01056  -0.00661  -0.01717   2.03513
    R7        3.78474  -0.02392  -0.16762   0.01479  -0.15283   3.63192
    R8        2.05015  -0.00479  -0.00888  -0.00535  -0.01423   2.03593
    A1        1.77355   0.03596   0.11987   0.10415   0.22402   1.99757
    A2        2.27323  -0.01869  -0.06591  -0.05322  -0.11913   2.15410
    A3        2.23641  -0.01726  -0.05396  -0.05093  -0.10489   2.13152
    A4        1.96712   0.00958  -0.02488   0.04401   0.02032   1.98744
    A5        1.97743   0.00684  -0.02872   0.03362   0.00576   1.98319
    A6        2.03216  -0.02867  -0.04097  -0.07321  -0.11423   1.91792
    A7        1.92016  -0.00126  -0.00442   0.01333   0.01056   1.93072
    A8        1.77553   0.00599   0.05310  -0.01328   0.04011   1.81564
    A9        1.77255   0.00699   0.05423  -0.01343   0.04041   1.81296
   A10        2.26078  -0.02906  -0.05896  -0.06280  -0.12176   2.13903
   A11        2.25610  -0.02016  -0.06225  -0.07198  -0.13424   2.12187
   A12        1.76625   0.04922   0.12124   0.13480   0.25604   2.02229
    D1        0.02013  -0.00044  -0.01785  -0.00332  -0.02110  -0.00097
    D2       -3.13453  -0.00016  -0.01230  -0.00027  -0.01264   3.13602
    D3       -3.11991  -0.00051  -0.01848  -0.00398  -0.02239   3.14089
    D4        0.00862  -0.00024  -0.01292  -0.00093  -0.01392  -0.00530
    D5       -1.03714  -0.00544   0.02263  -0.03159  -0.00844  -1.04558
    D6        2.11476  -0.00539   0.01830  -0.03312  -0.01440   2.10037
    D7        1.15757   0.00645  -0.02153   0.05099   0.02877   1.18634
    D8       -1.97371   0.00650  -0.02586   0.04947   0.02282  -1.95090
    D9       -3.07937  -0.00007  -0.00023   0.00506   0.00516  -3.07421
   D10        0.07254  -0.00002  -0.00455   0.00354  -0.00080   0.07174
         Item               Value     Threshold  Converged?
 Maximum Force            0.049223     0.000450     NO 
 RMS     Force            0.016626     0.000300     NO 
 Maximum Displacement     0.385052     0.001800     NO 
 RMS     Displacement     0.134263     0.001200     NO 
 Predicted change in Energy=-1.845197D-02
 GradGradGradGradGradGradGradGradGradGradGradGradGradGradGradGradGradGrad

                          Input orientation:                          
 ---------------------------------------------------------------------
 Center     Atomic      Atomic             Coordinates (Angstroms)
 Number     Number       Type             X           Y           Z
 ---------------------------------------------------------------------
      1          6           0       -0.046544   -1.330443    0.000841
      2          1           0        0.818938   -1.975095    0.017744
      3          1           0       -0.989600   -1.850535   -0.016446
      4          6           0        1.346512    0.708755    0.025825
      5          6           0        0.027320   -0.031753    0.000762
      6          1           0       -0.856774    0.583548   -0.021570
      7          1           0        1.951402    0.492452    0.890261
      8          1           0        1.921908    0.596230   -0.877539
      9         17           0        1.031879    2.601365    0.139122
 ---------------------------------------------------------------------
                    Distance matrix (angstroms):
                    1          2          3          4          5
     1  C    0.000000
     2  H    1.079315   0.000000
     3  H    1.077103   1.813145   0.000000
     4  C    2.469728   2.735224   3.465426   0.000000
     5  C    1.300789   2.098458   2.083841   1.513026   0.000000
     6  H    2.078542   3.058793   2.437710   2.207350   1.077366
     7  H    2.847069   2.851763   3.867971   1.076999   2.183596
     8  H    2.891093   2.937649   3.899361   1.076944   2.180650
     9  Cl   4.079366   4.583019   4.891829   1.921927   2.821629
                    6          7          8          9
     6  H    0.000000
     7  H    2.953911   0.000000
     8  H    2.907562   1.771088   0.000000
     9  Cl   2.768468   2.420174   2.417916   0.000000
 Stoichiometry    C3H5Cl
 Framework group  C1[X(C3H5Cl)]
 Deg. of freedom    21
 Full point group                 C1      NOp   1
 Largest Abelian subgroup         C1      NOp   1
 Largest concise Abelian subgroup C1      NOp   1
                         Standard orientation:                         
 ---------------------------------------------------------------------
 Center     Atomic      Atomic             Coordinates (Angstroms)
 Number     Number       Type             X           Y           Z
 ---------------------------------------------------------------------
      1          6           0       -2.405277   -0.076927   -0.023672
      2          1           0       -2.777169    0.935266   -0.069322
      3          1           0       -3.171581   -0.833847   -0.022700
      4          6           0       -0.055378    0.681469    0.024970
      5          6           0       -1.139788   -0.373661    0.026705
      6          1           0       -0.801496   -1.395314    0.076715
      7          1           0       -0.059962    1.309743   -0.849773
      8          1           0       -0.032829    1.278733    0.920836
      9         17           0        1.673277   -0.157639   -0.013164
 ---------------------------------------------------------------------
 Rotational constants (GHZ):          30.2667071           2.4991657           2.3432596
 Standard basis: 3-21G (6D, 7F)
 There are    50 symmetry adapted cartesian basis functions of A   symmetry.
 There are    50 symmetry adapted basis functions of A   symmetry.
    50 basis functions,    87 primitive gaussians,    50 cartesian basis functions
    20 alpha electrons       20 beta electrons
       nuclear repulsion energy       139.8000785031 Hartrees.
 NAtoms=    9 NActive=    9 NUniq=    9 SFac= 1.00D+00 NAtFMM=   60 NAOKFM=F Big=F
 Integral buffers will be    131072 words long.
 Raffenetti 1 integral format.
 Two-electron integral symmetry is turned on.
 ------------------------------------------------------------------------------
 Polarizable Continuum Model (PCM)
 =================================
 Model                : PCM.
 Atomic radii         : SMD-Coulomb.
 Polarization charges : Total charges.
 Charge compensation  : None.
 Solution method      : On-the-fly selection.
 Cavity type          : VdW (van der Waals Surface) (Alpha=1.000).
 Cavity algorithm     : GePol (No added spheres)
                        Default sphere list used, NSphG=    9.
                        Lebedev-Laikov grids with approx.  5.0 points / Ang**2.
                        Smoothing algorithm: York/Karplus (Gamma=1.0000).
                        Polarization charges: spherical gaussians, with
                                              point-specific exponents (IZeta= 3).
                        Self-potential: point-specific (ISelfS= 7).
                        Self-field    : sphere-specific E.n sum rule (ISelfD= 2).
 1st derivatives      : Analytical E(r).r(x)/FMM algorithm (CHGder, D1EAlg=3).
                        Cavity 1st derivative terms included.
 Solvent              : DiMethylSulfoxide, Eps=  46.826000 Eps(inf)=   2.007889
 ------------------------------------------------------------------------------
 Spheres list:
 ISph  on   Nord     Re0    Alpha      Xe            Ye            Ze
    1   C      1    1.8500  1.000     -2.405277     -0.076927     -0.023672
    2   H      2    1.2000  1.000     -2.777169      0.935266     -0.069322
    3   H      3    1.2000  1.000     -3.171581     -0.833847     -0.022700
    4   C      4    1.8500  1.000     -0.055378      0.681469      0.024970
    5   C      5    1.8500  1.000     -1.139788     -0.373661      0.026705
    6   H      6    1.2000  1.000     -0.801496     -1.395314      0.076715
    7   H      7    1.2000  1.000     -0.059962      1.309743     -0.849773
    8   H      8    1.2000  1.000     -0.032829      1.278733      0.920836
    9  Cl      9    2.3800  1.000      1.673277     -0.157639     -0.013164
 ------------------------------------------------------------------------------
 ------------------------------------------------------------------------------
 Atomic radii for non-electrostatic terms: SMD-CDS.
 ------------------------------------------------------------------------------
 Nuclear repulsion after PCM non-electrostatic terms =      139.8009987703 Hartrees.
 One-electron integrals computed using PRISM.
 NBasis=    50 RedAO= T EigKep=  1.11D-02  NBF=    50
 NBsUse=    50 1.00D-06 EigRej= -1.00D+00 NBFU=    50
 Initial guess from the checkpoint file:  "AllylChloride.chk"
 B after Tr=    -0.000000    0.000000   -0.000000
         Rot=    0.999995   -0.001737    0.000123    0.002496 Ang=  -0.35 deg.
 ExpMin= 1.67D-01 ExpMax= 1.38D+03 ExpMxC= 1.38D+03 IAcc=2 IRadAn=         4 AccDes= 0.00D+00
 Harris functional with IExCor=  205 and IRadAn=       4 diagonalized for initial guess.
 HarFok:  IExCor=  205 AccDes= 0.00D+00 IRadAn=         4 IDoV= 1 UseB2=F ITyADJ=14
 ICtDFT=  3500011 ScaDFX=  1.000000  1.000000  1.000000  1.000000
 FoFCou: FMM=F IPFlag=           0 FMFlag=      100000 FMFlg1=           0
         NFxFlg=           0 DoJE=T BraDBF=F KetDBF=T FulRan=T
         wScrn=  0.000000 ICntrl=       500 IOpCl=  0 I1Cent=   200000004 NGrid=           0
         NMat0=    1 NMatS0=      1 NMatT0=    0 NMatD0=    1 NMtDS0=    0 NMtDT0=    0
 Petite list used in FoFCou.
 Keep R1 ints in memory in canonical form, NReq=12890803.
 Requested convergence on RMS density matrix=1.00D-08 within 128 cycles.
 Requested convergence on MAX density matrix=1.00D-06.
 Requested convergence on             energy=1.00D-06.
 No special actions if energy rises.
 Inv3:  Mode=1 IEnd=     2656443.
 Iteration    1 A*A^-1 deviation from unit magnitude is 2.89D-15 for    543.
 Iteration    1 A*A^-1 deviation from orthogonality  is 2.21D-15 for    308    219.
 Iteration    1 A^-1*A deviation from unit magnitude is 2.66D-15 for    749.
 Iteration    1 A^-1*A deviation from orthogonality  is 2.05D-15 for    356    329.
 Error on total polarization charges =  0.01486
 SCF Done:  E(RHF) =  -573.144819478     A.U. after   12 cycles
            NFock= 12  Conv=0.93D-08     -V/T= 2.0011
 SMD-CDS (non-electrostatic) energy       (kcal/mol) =       0.58
 (included in total energy above)
 D1PCM: PCM CHGder 1st derivatives, ID1Alg=3 FixD1E=F DoIter=F DoCFld=F I1PDM=0.
 Calling FoFJK, ICntrl=      2127 FMM=F ISym2X=0 I1Cent= 0 IOpClX= 0 NMat=1 NMatS=1 NMatT=0.
 ***** Axes restored to original set *****
 -------------------------------------------------------------------
 Center     Atomic                   Forces (Hartrees/Bohr)
 Number     Number              X              Y              Z
 -------------------------------------------------------------------
      1        6          -0.000508136   -0.026163954    0.000223668
      2        1          -0.000141582    0.003905196    0.000409565
      3        1           0.000371821    0.003699793   -0.000440709
      4        6           0.000009518   -0.005113117   -0.000752119
      5        6           0.001681302    0.026042403    0.000598342
      6        1           0.002037527   -0.002975857   -0.000079098
      7        1          -0.001841870    0.000828947   -0.000126091
      8        1          -0.001680148    0.001328406    0.000076604
      9       17           0.000071567   -0.001551816    0.000089839
 -------------------------------------------------------------------
 Cartesian Forces:  Max     0.026163954 RMS     0.007319545

 GradGradGradGradGradGradGradGradGradGradGradGradGradGradGradGradGradGrad
 Berny optimization.
 Using GEDIIS/GDIIS optimizer.
 FormGI is forming the generalized inverse of G from B-inverse, IUseBI=4.
 Internal  Forces:  Max     0.018544112 RMS     0.003836461
 Search for a local minimum.
 Step number   4 out of a maximum of   85
 All quantities printed in internal units (Hartrees-Bohrs-Radians)
 Mixed Optimization -- RFO/linear search
 Update second derivatives using D2CorX and points    2    3    4
 DE= -2.16D-02 DEPred=-1.85D-02 R= 1.17D+00
 TightC=F SS=  1.41D+00  RLast= 4.69D-01 DXNew= 8.4853D-01 1.4062D+00
 Trust test= 1.17D+00 RLast= 4.69D-01 DXMaxT set to 8.49D-01
 ITU=  1  0  1  0
 Use linear search instead of GDIIS.
     Eigenvalues ---    0.00237   0.03018   0.06412   0.06755   0.06758
     Eigenvalues ---    0.07078   0.14115   0.15981   0.16000   0.16001
     Eigenvalues ---    0.17209   0.21915   0.22637   0.24887   0.28701
     Eigenvalues ---    0.37037   0.37230   0.37230   0.37235   0.37305
     Eigenvalues ---    1.29644
 RFO step:  Lambda=-8.36765866D-04 EMin= 2.36798331D-03
 Quartic linear search produced a step of  0.05461.
 Iteration  1 RMS(Cart)=  0.04399537 RMS(Int)=  0.00088953
 Iteration  2 RMS(Cart)=  0.00091715 RMS(Int)=  0.00003127
 Iteration  3 RMS(Cart)=  0.00000042 RMS(Int)=  0.00003127
 Variable       Old X    -DE/DX   Delta X   Delta X   Delta X     New X
                                 (Linear)    (Quad)   (Total)
    R1        2.03961  -0.00244  -0.00131  -0.00589  -0.00721   2.03240
    R2        2.03543  -0.00210  -0.00080  -0.00544  -0.00624   2.02919
    R3        2.45813   0.01854  -0.00192   0.01943   0.01751   2.47564
    R4        2.85920  -0.00522   0.00024  -0.02231  -0.02206   2.83714
    R5        2.03523  -0.00130  -0.00084  -0.00285  -0.00369   2.03154
    R6        2.03513  -0.00110  -0.00094  -0.00214  -0.00308   2.03205
    R7        3.63192  -0.00154  -0.00835   0.00780  -0.00054   3.63137
    R8        2.03593  -0.00337  -0.00078  -0.00929  -0.01006   2.02586
    A1        1.99757   0.00415   0.01223   0.01699   0.02922   2.02679
    A2        2.15410  -0.00207  -0.00651  -0.00799  -0.01449   2.13961
    A3        2.13152  -0.00209  -0.00573  -0.00900  -0.01473   2.11679
    A4        1.98744  -0.00056   0.00111  -0.00274  -0.00171   1.98573
    A5        1.98319   0.00006   0.00031   0.00313   0.00336   1.98655
    A6        1.91792  -0.00081  -0.00624  -0.00152  -0.00781   1.91011
    A7        1.93072   0.00155   0.00058   0.01778   0.01827   1.94899
    A8        1.81564  -0.00010   0.00219  -0.00993  -0.00778   1.80786
    A9        1.81296  -0.00018   0.00221  -0.00896  -0.00681   1.80615
   A10        2.13903  -0.00213  -0.00665  -0.00413  -0.01078   2.12824
   A11        2.12187  -0.00024  -0.00733   0.00333  -0.00400   2.11786
   A12        2.02229   0.00237   0.01398   0.00079   0.01476   2.03705
    D1       -0.00097   0.00042  -0.00115   0.00861   0.00747   0.00650
    D2        3.13602   0.00029  -0.00069   0.00406   0.00337   3.13939
    D3        3.14089   0.00044  -0.00122   0.00903   0.00782  -3.13448
    D4       -0.00530   0.00032  -0.00076   0.00448   0.00372  -0.00159
    D5       -1.04558  -0.00074  -0.00046   0.05899   0.05852  -0.98706
    D6        2.10037  -0.00062  -0.00079   0.06329   0.06249   2.16285
    D7        1.18634   0.00099   0.00157   0.08451   0.08610   1.27244
    D8       -1.95090   0.00112   0.00125   0.08881   0.09006  -1.86084
    D9       -3.07421   0.00027   0.00028   0.07420   0.07449  -2.99972
   D10        0.07174   0.00039  -0.00004   0.07850   0.07845   0.15019
         Item               Value     Threshold  Converged?
 Maximum Force            0.018544     0.000450     NO 
 RMS     Force            0.003836     0.000300     NO 
 Maximum Displacement     0.116731     0.001800     NO 
 RMS     Displacement     0.044016     0.001200     NO 
 Predicted change in Energy=-4.961541D-04
 GradGradGradGradGradGradGradGradGradGradGradGradGradGradGradGradGradGrad

                          Input orientation:                          
 ---------------------------------------------------------------------
 Center     Atomic      Atomic             Coordinates (Angstroms)
 Number     Number       Type             X           Y           Z
 ---------------------------------------------------------------------
      1          6           0       -0.042867   -1.332304    0.018112
      2          1           0        0.828964   -1.959462    0.075418
      3          1           0       -0.989055   -1.839267   -0.009501
      4          6           0        1.344717    0.698921    0.011375
      5          6           0        0.029595   -0.024736   -0.017366
      6          1           0       -0.852745    0.581272   -0.076535
      7          1           0        1.953987    0.456968    0.863413
      8          1           0        1.899835    0.627583   -0.906808
      9         17           0        1.032612    2.585550    0.200894
 ---------------------------------------------------------------------
                    Distance matrix (angstroms):
                    1          2          3          4          5
     1  C    0.000000
     2  H    1.075500   0.000000
     3  H    1.073800   1.823966   0.000000
     4  C    2.459940   2.708709   3.448090   0.000000
     5  C    1.310054   2.095415   2.080921   1.501350   0.000000
     6  H    2.080056   3.050667   2.425301   2.202364   1.072041
     7  H    2.811308   2.779523   3.833558   1.075044   2.170506
     8  H    2.910451   2.967210   3.903357   1.075316   2.171273
     9  Cl   4.066896   4.551303   4.869334   1.921640   2.804867
                    6          7          8          9
     6  H    0.000000
     7  H    2.962549   0.000000
     8  H    2.875447   1.779248   0.000000
     9  Cl   2.765623   2.412204   2.410958   0.000000
 Stoichiometry    C3H5Cl
 Framework group  C1[X(C3H5Cl)]
 Deg. of freedom    21
 Full point group                 C1      NOp   1
 Largest Abelian subgroup         C1      NOp   1
 Largest concise Abelian subgroup C1      NOp   1
                         Standard orientation:                         
 ---------------------------------------------------------------------
 Center     Atomic      Atomic             Coordinates (Angstroms)
 Number     Number       Type             X           Y           Z
 ---------------------------------------------------------------------
      1          6           0       -2.399369   -0.075410   -0.050344
      2          1           0       -2.749745    0.936393   -0.151301
      3          1           0       -3.154651   -0.838631   -0.040875
      4          6           0       -0.060934    0.680984    0.054029
      5          6           0       -1.128445   -0.374699    0.056516
      6          1           0       -0.801397   -1.390551    0.158274
      7          1           0       -0.077194    1.311718   -0.816391
      8          1           0       -0.017661    1.257006    0.961019
      9         17           0        1.666655   -0.156540   -0.027761
 ---------------------------------------------------------------------
 Rotational constants (GHZ):          30.0987950           2.5179025           2.3621716
 Standard basis: 3-21G (6D, 7F)
 There are    50 symmetry adapted cartesian basis functions of A   symmetry.
 There are    50 symmetry adapted basis functions of A   symmetry.
    50 basis functions,    87 primitive gaussians,    50 cartesian basis functions
    20 alpha electrons       20 beta electrons
       nuclear repulsion energy       140.1251831513 Hartrees.
 NAtoms=    9 NActive=    9 NUniq=    9 SFac= 1.00D+00 NAtFMM=   60 NAOKFM=F Big=F
 Integral buffers will be    131072 words long.
 Raffenetti 1 integral format.
 Two-electron integral symmetry is turned on.
 ------------------------------------------------------------------------------
 Polarizable Continuum Model (PCM)
 =================================
 Model                : PCM.
 Atomic radii         : SMD-Coulomb.
 Polarization charges : Total charges.
 Charge compensation  : None.
 Solution method      : On-the-fly selection.
 Cavity type          : VdW (van der Waals Surface) (Alpha=1.000).
 Cavity algorithm     : GePol (No added spheres)
                        Default sphere list used, NSphG=    9.
                        Lebedev-Laikov grids with approx.  5.0 points / Ang**2.
                        Smoothing algorithm: York/Karplus (Gamma=1.0000).
                        Polarization charges: spherical gaussians, with
                                              point-specific exponents (IZeta= 3).
                        Self-potential: point-specific (ISelfS= 7).
                        Self-field    : sphere-specific E.n sum rule (ISelfD= 2).
 1st derivatives      : Analytical E(r).r(x)/FMM algorithm (CHGder, D1EAlg=3).
                        Cavity 1st derivative terms included.
 Solvent              : DiMethylSulfoxide, Eps=  46.826000 Eps(inf)=   2.007889
 ------------------------------------------------------------------------------
 Spheres list:
 ISph  on   Nord     Re0    Alpha      Xe            Ye            Ze
    1   C      1    1.8500  1.000     -2.399369     -0.075410     -0.050344
    2   H      2    1.2000  1.000     -2.749745      0.936393     -0.151301
    3   H      3    1.2000  1.000     -3.154651     -0.838631     -0.040875
    4   C      4    1.8500  1.000     -0.060934      0.680984      0.054029
    5   C      5    1.8500  1.000     -1.128445     -0.374699      0.056516
    6   H      6    1.2000  1.000     -0.801397     -1.390551      0.158274
    7   H      7    1.2000  1.000     -0.077194      1.311718     -0.816391
    8   H      8    1.2000  1.000     -0.017661      1.257006      0.961019
    9  Cl      9    2.3800  1.000      1.666655     -0.156540     -0.027761
 ------------------------------------------------------------------------------
 ------------------------------------------------------------------------------
 Atomic radii for non-electrostatic terms: SMD-CDS.
 ------------------------------------------------------------------------------
 Nuclear repulsion after PCM non-electrostatic terms =      140.1261160114 Hartrees.
 One-electron integrals computed using PRISM.
 NBasis=    50 RedAO= T EigKep=  1.12D-02  NBF=    50
 NBsUse=    50 1.00D-06 EigRej= -1.00D+00 NBFU=    50
 Initial guess from the checkpoint file:  "AllylChloride.chk"
 B after Tr=     0.000000   -0.000000    0.000000
         Rot=    0.999998   -0.001800   -0.000251   -0.000212 Ang=  -0.21 deg.
 ExpMin= 1.67D-01 ExpMax= 1.38D+03 ExpMxC= 1.38D+03 IAcc=2 IRadAn=         4 AccDes= 0.00D+00
 Harris functional with IExCor=  205 and IRadAn=       4 diagonalized for initial guess.
 HarFok:  IExCor=  205 AccDes= 0.00D+00 IRadAn=         4 IDoV= 1 UseB2=F ITyADJ=14
 ICtDFT=  3500011 ScaDFX=  1.000000  1.000000  1.000000  1.000000
 FoFCou: FMM=F IPFlag=           0 FMFlag=      100000 FMFlg1=           0
         NFxFlg=           0 DoJE=T BraDBF=F KetDBF=T FulRan=T
         wScrn=  0.000000 ICntrl=       500 IOpCl=  0 I1Cent=   200000004 NGrid=           0
         NMat0=    1 NMatS0=      1 NMatT0=    0 NMatD0=    1 NMtDS0=    0 NMtDT0=    0
 Petite list used in FoFCou.
 Keep R1 ints in memory in canonical form, NReq=12890803.
 Requested convergence on RMS density matrix=1.00D-08 within 128 cycles.
 Requested convergence on MAX density matrix=1.00D-06.
 Requested convergence on             energy=1.00D-06.
 No special actions if energy rises.
 Inv3:  Mode=1 IEnd=     2662092.
 Iteration    1 A*A^-1 deviation from unit magnitude is 2.66D-15 for    111.
 Iteration    1 A*A^-1 deviation from orthogonality  is 1.39D-15 for    307    184.
 Iteration    1 A^-1*A deviation from unit magnitude is 2.78D-15 for    630.
 Iteration    1 A^-1*A deviation from orthogonality  is 3.65D-15 for    372    325.
 Error on total polarization charges =  0.01476
 SCF Done:  E(RHF) =  -573.145480067     A.U. after   11 cycles
            NFock= 11  Conv=0.44D-08     -V/T= 2.0010
 SMD-CDS (non-electrostatic) energy       (kcal/mol) =       0.59
 (included in total energy above)
 D1PCM: PCM CHGder 1st derivatives, ID1Alg=3 FixD1E=F DoIter=F DoCFld=F I1PDM=0.
 Calling FoFJK, ICntrl=      2127 FMM=F ISym2X=0 I1Cent= 0 IOpClX= 0 NMat=1 NMatS=1 NMatT=0.
 ***** Axes restored to original set *****
 -------------------------------------------------------------------
 Center     Atomic                   Forces (Hartrees/Bohr)
 Number     Number              X              Y              Z
 -------------------------------------------------------------------
      1        6          -0.000907467   -0.008265167    0.000732808
      2        1           0.000368063    0.000500200    0.000433554
      3        1          -0.000299815    0.000454781   -0.000521420
      4        6           0.000669814    0.000380603   -0.000052253
      5        6           0.000426584    0.006721304    0.000418066
      6        1          -0.000574234   -0.000289694   -0.000716342
      7        1           0.000309691   -0.000502262   -0.000493761
      8        1          -0.000213602    0.000519559   -0.000071476
      9       17           0.000220964    0.000480674    0.000270825
 -------------------------------------------------------------------
 Cartesian Forces:  Max     0.008265167 RMS     0.002100594

 GradGradGradGradGradGradGradGradGradGradGradGradGradGradGradGradGradGrad
 Berny optimization.
 Using GEDIIS/GDIIS optimizer.
 FormGI is forming the generalized inverse of G from B-inverse, IUseBI=4.
 Internal  Forces:  Max     0.007358391 RMS     0.001428311
 Search for a local minimum.
 Step number   5 out of a maximum of   85
 All quantities printed in internal units (Hartrees-Bohrs-Radians)
 Mixed Optimization -- RFO/linear search
 Update second derivatives using D2CorX and points    2    3    4    5
 DE= -6.61D-04 DEPred=-4.96D-04 R= 1.33D+00
 TightC=F SS=  1.41D+00  RLast= 1.95D-01 DXNew= 1.4270D+00 5.8369D-01
 Trust test= 1.33D+00 RLast= 1.95D-01 DXMaxT set to 8.49D-01
 ITU=  1  1  0  1  0
 Use linear search instead of GDIIS.
     Eigenvalues ---    0.00137   0.02973   0.06445   0.06758   0.06803
     Eigenvalues ---    0.07185   0.14853   0.15913   0.16000   0.16007
     Eigenvalues ---    0.16997   0.22059   0.23375   0.25275   0.32078
     Eigenvalues ---    0.37219   0.37230   0.37233   0.37256   0.40367
     Eigenvalues ---    1.13194
 RFO step:  Lambda=-1.06858480D-03 EMin= 1.37384717D-03
 Quartic linear search produced a step of  0.67375.
 Iteration  1 RMS(Cart)=  0.11331596 RMS(Int)=  0.04137579
 Iteration  2 RMS(Cart)=  0.05115883 RMS(Int)=  0.00110060
 Iteration  3 RMS(Cart)=  0.00121196 RMS(Int)=  0.00005386
 Iteration  4 RMS(Cart)=  0.00000043 RMS(Int)=  0.00005386
 Variable       Old X    -DE/DX   Delta X   Delta X   Delta X     New X
                                 (Linear)    (Quad)   (Total)
    R1        2.03240   0.00003  -0.00486  -0.00200  -0.00686   2.02554
    R2        2.02919   0.00006  -0.00421  -0.00148  -0.00568   2.02350
    R3        2.47564   0.00736   0.01180   0.01531   0.02711   2.50275
    R4        2.83714   0.00128  -0.01487  -0.00083  -0.01569   2.82145
    R5        2.03154  -0.00010  -0.00249  -0.00144  -0.00393   2.02761
    R6        2.03205  -0.00008  -0.00207  -0.00122  -0.00329   2.02876
    R7        3.63137   0.00046  -0.00037   0.00690   0.00654   3.63791
    R8        2.02586   0.00035  -0.00678  -0.00139  -0.00817   2.01770
    A1        2.02679   0.00081   0.01969   0.01719   0.03688   2.06367
    A2        2.13961  -0.00046  -0.00976  -0.00896  -0.01872   2.12089
    A3        2.11679  -0.00035  -0.00993  -0.00823  -0.01816   2.09863
    A4        1.98573  -0.00004  -0.00115   0.00157   0.00032   1.98606
    A5        1.98655  -0.00006   0.00226   0.00150   0.00368   1.99023
    A6        1.91011   0.00080  -0.00526   0.00157  -0.00372   1.90639
    A7        1.94899  -0.00015   0.01231   0.00223   0.01442   1.96341
    A8        1.80786  -0.00017  -0.00524  -0.00238  -0.00767   1.80019
    A9        1.80615  -0.00036  -0.00459  -0.00563  -0.01023   1.79593
   A10        2.12824   0.00025  -0.00726  -0.00273  -0.01002   2.11822
   A11        2.11786  -0.00069  -0.00270  -0.00895  -0.01167   2.10619
   A12        2.03705   0.00044   0.00995   0.01160   0.02152   2.05857
    D1        0.00650   0.00049   0.00503   0.01526   0.02021   0.02670
    D2        3.13939   0.00027   0.00227   0.00401   0.00636  -3.13744
    D3       -3.13448   0.00053   0.00527   0.01617   0.02135  -3.11313
    D4       -0.00159   0.00031   0.00250   0.00492   0.00751   0.00592
    D5       -0.98706   0.00062   0.03943   0.23220   0.27155  -0.71551
    D6        2.16285   0.00083   0.04210   0.24305   0.28518   2.44804
    D7        1.27244   0.00030   0.05801   0.23828   0.29627   1.56871
    D8       -1.86084   0.00052   0.06068   0.24913   0.30990  -1.55093
    D9       -2.99972   0.00034   0.05019   0.23319   0.28331  -2.71641
   D10        0.15019   0.00055   0.05286   0.24404   0.29694   0.44713
         Item               Value     Threshold  Converged?
 Maximum Force            0.007358     0.000450     NO 
 RMS     Force            0.001428     0.000300     NO 
 Maximum Displacement     0.437876     0.001800     NO 
 RMS     Displacement     0.162947     0.001200     NO 
 Predicted change in Energy=-7.728191D-04
 GradGradGradGradGradGradGradGradGradGradGradGradGradGradGradGradGradGrad

[...]
      5        6          -0.000023857   -0.000054895   -0.000015421
      6        1           0.000020608    0.000032633   -0.000016241
      7        1           0.000038537   -0.000027926   -0.000027283
      8        1           0.000003639   -0.000024408   -0.000007128
      9       17           0.000039666   -0.000203777   -0.000141738
 -------------------------------------------------------------------
 Cartesian Forces:  Max     0.000352801 RMS     0.000096261
 FormGI is forming the generalized inverse of G from B-inverse, IUseBI=4.

 GradGradGradGradGradGradGradGradGradGradGradGradGradGradGradGradGradGrad
 Berny optimization.
 Internal  Forces:  Max     0.000254700 RMS     0.000058359
 Search for a local minimum.
 Step number   1 out of a maximum of    2
 All quantities printed in internal units (Hartrees-Bohrs-Radians)
 Second derivative matrix not updated -- analytic derivatives used.
 ITU=  0
     Eigenvalues ---    0.00298   0.02467   0.03717   0.04693   0.05612
     Eigenvalues ---    0.08168   0.11839   0.12521   0.13395   0.15054
     Eigenvalues ---    0.16621   0.18040   0.20542   0.22631   0.35792
     Eigenvalues ---    0.39623   0.39898   0.39941   0.40078   0.40213
     Eigenvalues ---    0.73797
 Angle between quadratic step and forces=  33.66 degrees.
 Linear search not attempted -- first point.
 Iteration  1 RMS(Cart)=  0.00053556 RMS(Int)=  0.00000043
 Iteration  2 RMS(Cart)=  0.00000035 RMS(Int)=  0.00000029
 Variable       Old X    -DE/DX   Delta X   Delta X   Delta X     New X
                                 (Linear)    (Quad)   (Total)
    R1        2.03100   0.00000   0.00000   0.00003   0.00003   2.03102
    R2        2.02872  -0.00000   0.00000   0.00000   0.00000   2.02872
    R3        2.49005   0.00007   0.00000   0.00000   0.00000   2.49005
    R4        2.80039   0.00009   0.00000   0.00054   0.00054   2.80093
    R5        2.02930   0.00003   0.00000   0.00011   0.00011   2.02941
    R6        2.02930   0.00000   0.00000   0.00006   0.00006   2.02936
    R7        3.70278  -0.00025   0.00000  -0.00309  -0.00309   3.69968
    R8        2.02866   0.00001   0.00000   0.00005   0.00005   2.02871
    A1        2.03681  -0.00006   0.00000  -0.00043  -0.00043   2.03637
    A2        2.12840   0.00003   0.00000   0.00021   0.00021   2.12861
    A3        2.11796   0.00003   0.00000   0.00022   0.00022   2.11818
    A4        2.00153   0.00001   0.00000  -0.00030  -0.00030   2.00123
    A5        1.99846  -0.00004   0.00000  -0.00081  -0.00081   1.99765
    A6        1.89239   0.00003   0.00000   0.00047   0.00047   1.89286
    A7        1.96746  -0.00002   0.00000  -0.00068  -0.00068   1.96678
    A8        1.80116   0.00002   0.00000   0.00093   0.00093   1.80209
    A9        1.77437   0.00001   0.00000   0.00084   0.00084   1.77522
   A10        2.13741   0.00008   0.00000   0.00048   0.00048   2.13790
   A11        2.11621  -0.00000   0.00000   0.00007   0.00007   2.11628
   A12        2.02928  -0.00008   0.00000  -0.00055  -0.00055   2.02873
    D1        0.02881   0.00000   0.00000  -0.00009  -0.00009   0.02872
    D2       -3.13931   0.00000   0.00000  -0.00001  -0.00001  -3.13932
    D3       -3.10590  -0.00001   0.00000  -0.00025  -0.00025  -3.10615
    D4        0.00916  -0.00001   0.00000  -0.00017  -0.00017   0.00899
    D5        0.03739   0.00003   0.00000   0.00121   0.00121   0.03859
    D6       -3.07891   0.00003   0.00000   0.00112   0.00112  -3.07780
    D7        2.35146  -0.00002   0.00000  -0.00098  -0.00098   2.35048
    D8       -0.76484  -0.00002   0.00000  -0.00107  -0.00107  -0.76591
    D9       -1.96460  -0.00001   0.00000  -0.00009  -0.00009  -1.96469
   D10        1.20229  -0.00001   0.00000  -0.00018  -0.00018   1.20211
         Item               Value     Threshold  Converged?
 Maximum Force            0.000255     0.000450     YES
 RMS     Force            0.000058     0.000300     YES
 Maximum Displacement     0.001389     0.001800     YES
 RMS     Displacement     0.000536     0.001200     YES
 Predicted change in Energy=-5.742140D-07
 Optimization completed.
    -- Stationary point found.
                           ----------------------------
                           !   Optimized Parameters   !
                           ! (Angstroms and Degrees)  !
 --------------------------                            --------------------------
 ! Name  Definition              Value          Derivative Info.                !
 --------------------------------------------------------------------------------
 ! R1    R(1,2)                  1.0748         -DE/DX =    0.0                 !
 ! R2    R(1,3)                  1.0736         -DE/DX =    0.0                 !
 ! R3    R(1,5)                  1.3177         -DE/DX =    0.0001              !
 ! R4    R(4,5)                  1.4819         -DE/DX =    0.0001              !
 ! R5    R(4,7)                  1.0739         -DE/DX =    0.0                 !
 ! R6    R(4,8)                  1.0739         -DE/DX =    0.0                 !
 ! R7    R(4,9)                  1.9594         -DE/DX =   -0.0003              !
 ! R8    R(5,6)                  1.0735         -DE/DX =    0.0                 !
 ! A1    A(2,1,3)              116.7005         -DE/DX =   -0.0001              !
 ! A2    A(2,1,5)              121.9483         -DE/DX =    0.0                 !
 ! A3    A(3,1,5)              121.3501         -DE/DX =    0.0                 !
 ! A4    A(5,4,7)              114.6791         -DE/DX =    0.0                 !
 ! A5    A(5,4,8)              114.5033         -DE/DX =    0.0                 !
 ! A6    A(5,4,9)              108.4257         -DE/DX =    0.0                 !
 ! A7    A(7,4,8)              112.7271         -DE/DX =    0.0                 !
 ! A8    A(7,4,9)              103.199          -DE/DX =    0.0                 !
 ! A9    A(8,4,9)              101.6641         -DE/DX =    0.0                 !
 ! A10   A(1,5,4)              122.4648         -DE/DX =    0.0001              !
 ! A11   A(1,5,6)              121.2497         -DE/DX =    0.0                 !
 ! A12   A(4,5,6)              116.2692         -DE/DX =   -0.0001              !
 ! D1    D(2,1,5,4)              1.6506         -DE/DX =    0.0                 !
 ! D2    D(2,1,5,6)           -179.8694         -DE/DX =    0.0                 !
 ! D3    D(3,1,5,4)           -177.955          -DE/DX =    0.0                 !
 ! D4    D(3,1,5,6)              0.5249         -DE/DX =    0.0                 !
 ! D5    D(7,4,5,1)              2.1421         -DE/DX =    0.0                 !
 ! D6    D(7,4,5,6)           -176.4087         -DE/DX =    0.0                 !
 ! D7    D(8,4,5,1)            134.7285         -DE/DX =    0.0                 !
 ! D8    D(8,4,5,6)            -43.8223         -DE/DX =    0.0                 !
 ! D9    D(9,4,5,1)           -112.5632         -DE/DX =    0.0                 !
 ! D10   D(9,4,5,6)             68.886          -DE/DX =    0.0                 !
 --------------------------------------------------------------------------------
 GradGradGradGradGradGradGradGradGradGradGradGradGradGradGradGradGradGrad


 ----------------------------------------------------------------------

 Electric dipole moment (input orientation):
 (Debye = 10**-18 statcoulomb cm , SI units = C m)
                  (au)            (Debye)         (10**-30 SI)
   Tot        0.174347D+01      0.443147D+01      0.147818D+02
   x          0.137879D+00      0.350453D+00      0.116898D+01
   y         -0.148437D+01     -0.377289D+01     -0.125850D+02
   z         -0.904067D+00     -0.229791D+01     -0.766500D+01

 Dipole polarizability, Alpha (input orientation).
 (esu units = cm**3 , SI units = C**2 m**2 J**-1)
 Alpha(0;0):
               (au)            (10**-24 esu)      (10**-40 SI)
   iso        0.497992D+02      0.737947D+01      0.821077D+01
   aniso      0.454259D+02      0.673142D+01      0.748972D+01
   xx         0.355903D+02      0.527393D+01      0.586804D+01
   yx         0.660633D+01      0.978958D+00      0.108924D+01
   yy         0.789688D+02      0.117020D+02      0.130202D+02
   zx         0.218110D+01      0.323206D+00      0.359615D+00
   zy         0.106848D+01      0.158332D+00      0.176168D+00
   zz         0.348384D+02      0.516251D+01      0.574407D+01

 First dipole hyperpolarizability, Beta (input orientation).
 ||, _|_  parallel and perpendicular components, (z) with respect to z axis,
 vector components x,y,z.  Values do not include the 1/n! factor of 1/2.
 (esu units = statvolt**-1 cm**4 , SI units = C**3 m**3 J**-2)
 Beta(0;0,0):
               (au)            (10**-30 esu)      (10**-50 SI)
   || (z)    -0.991135D+02     -0.856263D+00     -0.317794D+00
   _|_(z)    -0.330378D+02     -0.285421D+00     -0.105931D+00
   x          0.269863D+03      0.233140D+01      0.865277D+00
   y         -0.741587D+03     -0.640674D+01     -0.237780D+01
   z         -0.495567D+03     -0.428132D+01     -0.158897D+01
   ||         0.186372D+03      0.161011D+01      0.597577D+00
   xxx        0.127006D+02      0.109723D+00      0.407226D-01
   xxy       -0.150574D+02     -0.130084D+00     -0.482796D-01
   yxy        0.550280D+02      0.475399D+00      0.176440D+00
   yyy       -0.188665D+03     -0.162992D+01     -0.604929D+00
   xxz       -0.647824D+01     -0.559670D-01     -0.207716D-01
   yxz       -0.739699D+01     -0.639042D-01     -0.237174D-01
   yyz       -0.710271D+02     -0.613618D+00     -0.227738D+00
   zxz        0.222257D+02      0.192013D+00      0.712636D-01
   zyz       -0.434730D+02     -0.375573D+00     -0.139390D+00
   zzz       -0.876838D+02     -0.757520D+00     -0.281146D+00

 ----------------------------------------------------------------------

 Dipole orientation:
     6         -0.21604718          1.64838609          1.78235106
     1          1.29560537          2.95830899          2.13442811
     1         -2.00589178          2.07021539          2.63922358
     6          2.57269658         -1.05725485         -0.75360397
     6          0.10254607         -0.38583998          0.38207366
     1         -1.42349317         -1.67824168          0.04092863
     1          4.09076257          0.20641504         -0.28813607
     1          3.08839318         -3.00966400         -0.55303089
    17          2.29756729         -0.72968282         -4.43158605

 Electric dipole moment (dipole orientation):
 (Debye = 10**-18 statcoulomb cm , SI units = C m)
                  (au)            (Debye)         (10**-30 SI)
   Tot        0.174347D+01      0.443147D+01      0.147818D+02
   x          0.000000D+00      0.000000D+00      0.000000D+00
   y          0.000000D+00      0.000000D+00      0.000000D+00
   z          0.174347D+01      0.443147D+01      0.147818D+02

 Dipole polarizability, Alpha (dipole orientation).
 (esu units = cm**3 , SI units = C**2 m**2 J**-1)
 Alpha(0;0):
               (au)            (10**-24 esu)      (10**-40 SI)
   iso        0.497992D+02      0.737947D+01      0.821077D+01
   aniso      0.454259D+02      0.673142D+01      0.748972D+01
   xx         0.366053D+02      0.542435D+01      0.603540D+01
   yx        -0.266970D+01     -0.395608D+00     -0.440173D+00
   yy         0.460858D+02      0.682921D+01      0.759852D+01
   zx        -0.839409D+01     -0.124388D+01     -0.138400D+01
   zy         0.193233D+02      0.286341D+01      0.318598D+01
   zz         0.667063D+02      0.988486D+01      0.109984D+02

 First dipole hyperpolarizability, Beta (dipole orientation).
 ||, _|_  parallel and perpendicular components, (z) with respect to z axis,
 vector components x,y,z.  Values do not include the 1/n! factor of 1/2.
 (esu units = statvolt**-1 cm**4 , SI units = C**3 m**3 J**-2)
 Beta(0;0,0):
               (au)            (10**-30 esu)      (10**-50 SI)
   || (z)     0.181938D+03      0.157181D+01      0.583360D+00
   _|_(z)     0.606461D+02      0.523935D+00      0.194453D+00
   x          0.196679D+03      0.169916D+01      0.630625D+00
   y         -0.462848D+02     -0.399865D+00     -0.148406D+00
   z          0.909692D+03      0.785903D+01      0.291680D+01
   ||         0.186372D+03      0.161011D+01      0.597577D+00
   xxx        0.948795D+01      0.819685D-01      0.304218D-01
   xxy        0.211658D+01      0.182856D-01      0.678652D-02
   yxy        0.329825D+02      0.284943D+00      0.105754D+00
   yyy       -0.323286D+02     -0.279294D+00     -0.103657D+00
   xxz        0.137358D+02      0.118667D+00      0.440420D-01
   yxz        0.181905D+02      0.157152D+00      0.583254D-01
   yyz        0.412484D+02      0.356354D+00      0.132257D+00
   zxz        0.230894D+02      0.199474D+00      0.740329D-01
   zyz        0.147838D+02      0.127720D+00      0.474022D-01
   zzz        0.248246D+03      0.214466D+01      0.795968D+00

 ----------------------------------------------------------------------
 1\1\GINC-C425-072\Freq\RHF\3-21G\C3H5Cl1\TG873513\10-May-2021\0\\#N Ge
 om=AllCheck Guess=TCheck SCRF=Check GenChk RHF/3-21G Freq\\Title Card 
 Required\\0,1\C,-0.0779431027,-1.2639912159,0.2445331456\H,0.702693839
 2,-1.7494457751,0.8013485465\H,-0.9952255449,-1.8087064886,0.124551705
 1\C,1.3490743354,0.6923038284,-0.1618750906\C,0.0790838227,-0.06301523
 93,-0.2743842398\H,-0.7090884847,0.4123304908,-0.8269075635\H,2.138921
 6489,0.1687059961,0.3432555272\H,1.6750483108,1.1540376157,-1.07495836
 32\Cl,1.0424768354,2.2523048778,0.9834371927\\Version=ES64L-G16RevA.03
 \State=1-A\HF=-573.1515901\RMSD=1.337e-09\RMSF=9.626e-05\ZeroPoint=0.0
 767618\Thermal=0.0814455\Dipole=0.1378788,-1.4843696,-0.9040674\Dipole
 Deriv=0.0209954,-0.0555308,0.0721922,0.070144,0.0085867,-0.1331136,0.0
 938333,-0.2149904,-0.216108,0.0108363,0.0601789,-0.097902,0.0155012,0.
 0708165,0.0628791,-0.0857756,0.060846,0.1190722,-0.0160517,-0.120155,-
 0.0526544,-0.0792309,0.0579014,0.0337906,-0.0485923,0.0693766,0.185611
 1,0.300783,0.1107481,-0.2147649,0.0470967,1.5434715,0.6438188,-0.05312
 03,0.8814232,0.6700816,-0.0376914,-0.0304444,0.2620152,-0.0368063,-0.3
 3607,-0.228708,0.2127614,-0.080661,-0.2675521,0.0009162,-0.0179901,-0.
 0998103,0.0184762,0.0673583,0.0837419,-0.0865501,0.0904801,0.1359452,0
 .0495971,0.0203534,-0.0117871,0.0563535,-0.038974,-0.0670181,-0.039007
 1,-0.0861759,0.0334045,0.1039637,-0.0187549,0.0502107,-0.0342841,-0.10
 27461,-0.0356897,0.0324993,-0.1158337,0.0004783,-0.4333487,0.0515947,0
 .0925007,-0.0572502,-1.2703444,-0.359701,-0.0260487,-0.604465,-0.66093
 28\Polar=35.5902689,6.6063342,78.9688437,2.181104,1.0684754,34.8383527
 \HyperPolar=12.7005528,-15.0574326,55.0279661,-188.6653881,-6.478244,-
 7.3969866,-71.0270625,22.2256852,-43.473004,-87.683811\Quadrupole=1.66
 28288,-1.0788415,-0.5839873,-0.1467533,-0.0059789,-2.3411259\PG=C01 [X
 (C3H5Cl1)]\NImag=0\\0.66519546,0.11543183,0.85592814,0.15434489,-0.287
 48377,0.36252228,-0.23056674,0.09942502,-0.12182592,0.23437933,0.09026
 245,-0.12669743,0.07382216,-0.10375775,0.12849299,-0.11776791,0.076594
 98,-0.13793710,0.13382485,-0.09004036,0.13022485,-0.29503492,-0.137558
 99,-0.03506306,-0.01440276,-0.01312532,-0.00219590,0.30399001,-0.12868
 454,-0.14306867,-0.00987434,0.01311263,0.01115422,0.00295532,0.1500433
 5,0.14630955,-0.03902317,-0.01461214,-0.06138552,-0.01466295,-0.007966
 26,0.00374446,0.04129666,0.00746062,0.04515971,-0.00647230,-0.01004555
 ,0.00129116,0.00024123,0.00259313,0.00235157,0.00317473,-0.00167274,-0
 .00479596,0.59952157,-0.03743922,-0.02689509,0.00421126,-0.00013221,0.
 00009919,-0.00315751,-0.00025156,-0.00194455,0.00384326,-0.00101647,0.
 40272741,0.01893476,0.00999057,0.01238985,0.00401067,-0.00375381,-0.00
 691666,-0.00344961,0.00817189,0.00923351,0.04658245,-0.22702629,0.5393
 5703,-0.13853857,-0.06034904,0.00063552,0.00749317,0.02797307,-0.01425
 762,0.00202411,-0.03333462,0.01384806,-0.21696705,-0.05000915,-0.01777
 668,0.60056926,-0.05889295,-0.55403627,0.20569574,-0.00621220,-0.01110
 403,0.00820522,0.00073298,-0.01164096,0.01321356,-0.05983406,-0.114409
 39,0.01863754,0.04323845,0.84726585,-0.00036090,0.20573939,-0.17320050
 ,0.00162759,0.02238928,0.00154927,-0.00343413,-0.00428055,0.00905571,-
 0.02032832,0.00859370,-0.10184592,0.14163879,-0.30304123,0.39505615,0.
 00920221,-0.00642993,0.00257643,0.00230405,-0.00319146,-0.00281400,-0.
 00013228,0.00168237,0.00306375,-0.02217987,0.01475835,-0.01601960,-0.2
 3160902,0.09754407,-0.12041210,0.24299636,0.02688819,-0.01076426,0.021
 62912,-0.00310585,-0.00174209,0.00597204,0.00135201,-0.00039332,-0.004
 06541,-0.01928234,0.00892941,-0.01096316,0.09639099,-0.12521575,0.0746
 0765,-0.10019338,0.12878287,-0.01393178,0.00810970,0.00094225,-0.00307
 415,0.00593419,0.00924115,0.00338765,-0.00387154,-0.00649967,-0.001078
 93,0.00185901,0.00312380,-0.11867814,0.07640894,-0.13943390,0.13360952
 ,-0.08841774,0.13065963,0.00156225,0.00116254,0.00027114,0.00044984,-0
 .00084454,0.00056377,0.00032301,0.00007926,0.00008564,-0.23344601,0.10
 941831,-0.11200647,-0.02212240,0.01668631,-0.01639063,-0.00272952,-0.0
 0336854,0.00003742,0.24397992,-0.00068879,0.00105406,-0.00159406,0.000
 30272,-0.00003087,0.00030011,0.00006524,0.00009445,-0.00000218,0.11456
 811,-0.13024231,0.08578747,-0.01821397,0.01261558,-0.00950140,-0.00359
 012,-0.00130355,0.00062838,-0.11586691,0.14135762,0.00070080,-0.000573
 66,-0.00027319,-0.00006614,-0.00016166,0.00020542,-0.00001177,-0.00012
 368,0.00009129,-0.11246503,0.08507343,-0.13002322,-0.00078672,0.001323
 59,0.00090151,-0.00017003,0.00033880,0.00175850,0.12217092,-0.07988726
 ,0.13631879,-0.00458928,-0.00127592,-0.00154934,-0.00008462,0.00027344
 ,0.00059344,0.00050244,-0.00161799,-0.00090625,-0.09304019,-0.04252829
 ,0.07521889,-0.00586789,-0.01569998,0.02947254,0.00121733,0.00094428,-
 0.00050424,0.01195961,0.00977127,-0.02379419,0.09057358,-0.00279417,0.
 00091150,-0.00085322,-0.00040077,0.00054463,0.00071077,0.00033355,-0.0
 0112403,-0.00117801,-0.04052444,-0.10717780,0.12860953,-0.00746337,-0.
 00830083,0.01810870,0.00019385,0.00014747,-0.00100189,-0.00761507,-0.0
 0307523,0.01452125,0.04846265,0.12674110,-0.00069064,-0.00024775,-0.00
 039375,-0.00008984,0.00007300,0.00039274,0.00016502,-0.00058182,-0.000
 80594,0.07860516,0.13072204,-0.28862357,-0.00505823,-0.00296774,0.0113
 3241,0.00053768,-0.00001740,0.00024073,0.00506021,0.00646097,-0.008301
 75,-0.08313440,-0.12711079,0.30136667,-0.00075811,-0.00035995,-0.00068
 084,0.00018649,-0.00018301,-0.00029821,-0.00044434,0.00039228,0.001094
 22,-0.03083211,0.00720024,0.00450559,0.00501839,-0.01756262,-0.0118128
 5,0.00093074,0.00037463,0.00023265,0.00002330,0.01365245,0.01442217,-0
 .00067098,0.00980777,0.00460505,0.02654662,-0.00408280,0.00356801,-0.0
 0555288,0.00076841,-0.00071661,-0.00154057,-0.00159126,0.00061331,0.00
 330656,0.01521435,-0.03108686,-0.00945374,0.00176764,-0.03517420,-0.01
 261554,-0.00077375,0.00155922,0.00035096,0.00034864,-0.02046973,-0.020
 51079,0.00167054,-0.00866682,-0.00633050,-0.01332179,0.09037368,-0.002
 20604,0.00248268,-0.00266432,0.00025589,-0.00029653,-0.00050413,-0.000
 69486,0.00014410,0.00140645,0.00983789,-0.00411889,-0.03669482,0.00043
 501,-0.01747563,-0.00341473,-0.00037165,0.00091611,-0.00003249,0.00020
 799,-0.00219202,-0.00067733,0.00460354,-0.03180633,-0.01520755,-0.0120
 6777,0.05234650,0.05778893\\0.00003712,0.00000736,0.00002818,0.0000226
 7,0.00003798,-0.00000185,-0.00001779,0.00002908,-0.00001912,0.00003659
 ,-0.00035280,-0.00021502,0.00002386,0.00005489,0.00001542,-0.00002061,
 -0.00003263,0.00001624,-0.00003854,0.00002793,0.00002728,-0.00000364,0
 .00002441,0.00000713,-0.00003967,0.00020378,0.00014174\\\@


 Spring appears, and we are once more children.
                                  -- Anonymous
 Job cpu time:       0 days  0 hours 24 minutes 30.0 seconds.
 Elapsed time:       0 days  0 hours  0 minutes 25.9 seconds.
 File lengths (MBytes):  RWF=     37 Int=      0 D2E=      0 Chk=      4 Scr=      1
 Normal termination of Gaussian 16 at Mon May 10 16:30:36 2021.
