 Entering Gaussian System, Link 0=g16
 Input=Cl.gjf
 Output=Cl.log
 Initial command:
 /home1/apps/gaussian/16rA.03/g16/l1.exe "/scratch/08052/tg873513/Gau-22409.inp" -scrdir="/scratch/08052/tg873513/"
 Entering Link 1 = /home1/apps/gaussian/16rA.03/g16/l1.exe PID=     22410.
  
 Copyright (c) 1988,1990,1992,1993,1995,1998,2003,2009,2016,
            Gaussian, Inc.  All Rights Reserved.
  
 This is part of the Gaussian(R) 16 program.  It is based on
 the Gaussian(R) 09 system (copyright 2009, Gaussian, Inc.),
 the Gaussian(R) 03 system (copyright 2003, Gaussian, Inc.),
 the Gaussian(R) 98 system (copyright 1998, Gaussian, Inc.),
 the Gaussian(R) 94 system (copyright 1995, Gaussian, Inc.),
 the Gaussian 92(TM) system (copyright 1992, Gaussian, Inc.),
 the Gaussian 90(TM) system (copyright 1990, Gaussian, Inc.),
 the Gaussian 88(TM) system (copyright 1988, Gaussian, Inc.),
 the Gaussian 86(TM) system (copyright 1986, Carnegie Mellon
 University), and the Gaussian 82(TM) system (copyright 1983,
 Carnegie Mellon University). Gaussian is a federally registered
 trademark of Gaussian, Inc.
  
 This software contains proprietary and confidential information,
 including trade secrets, belonging to Gaussian, Inc.
  
 This software is provided under written license and may be
 used, copied, transmitted, or stored only in accord with that
 written license.
  
 The following legend is applicable only to US Government
 contracts under FAR:
  
                    RESTRICTED RIGHTS LEGEND
  
 Use, reproduction and disclosure by the US Government is
 subject to restrictions as set forth in subparagraphs (a)
 and (c) of the Commercial Computer Software - Restricted
 Rights clause in FAR 52.227-19.
  
 Gaussian, Inc.
 340 Quinnipiac St., Bldg. 40, Wallingford CT 06492
  
  
 ---------------------------------------------------------------
 Warning -- This program may not be used in any manner that
 competes with the business of Gaussian, Inc. or will provide
 assistance to any competitor of Gaussian, Inc.  The licensee
 of this program is prohibited from giving any competitor of
 Gaussian, Inc. access to this program.  By using this program,
 the user acknowledges that Gaussian, Inc. is engaged in the
 business of creating and licensing software in the field of
 computational chemistry and represents and warrants to the
 licensee that it is not a competitor of Gaussian, Inc. and that
 it will not use this program in any manner prohibited above.
 ---------------------------------------------------------------
  

 Cite this work as:
 Gaussian 16, Revision A.03,
 M. J. Frisch, G. W. Trucks, H. B. Schlegel, G. E. Scuseria, 
 M. A. Robb, J. R. Cheeseman, G. Scalmani, V. Barone, 
 G. A. Petersson, H. Nakatsuji, X. Li, M. Caricato, A. V. Marenich, 
 J. Bloino, B. G. Janesko, R. Gomperts, B. Mennucci, H. P. Hratchian, 
 J. V. Ortiz, A. F. Izmaylov, J. L. Sonnenberg, D. Williams-Young, 
 F. Ding, F. Lipparini, F. Egidi, J. Goings, B. Peng, A. Petrone, 
 T. Henderson, D. Ranasinghe, V. G. Zakrzewski, J. Gao, N. Rega, 
 G. Zheng, W. Liang, M. Hada, M. Ehara, K. Toyota, R. Fukuda, 
 J. Hasegawa, M. Ishida, T. Nakajima, Y. Honda, O. Kitao, H. Nakai, 
 T. Vreven, K. Throssell, J. A. Montgomery, Jr., J. E. Peralta, 
 F. Ogliaro, M. J. Bearpark, J. J. Heyd, E. N. Brothers, K. N. Kudin, 
 V. N. Staroverov, T. A. Keith, R. Kobayashi, J. Normand, 
 K. Raghavachari, A. P. Rendell, J. C. Burant, S. S. Iyengar, 
 J. Tomasi, M. Cossi, J. M. Millam, M. Klene, C. Adamo, R. Cammi, 
 J. W. Ochterski, R. L. Martin, K. Morokuma, O. Farkas, 
 J. B. Foresman, and D. J. Fox, Gaussian, Inc., Wallingford CT, 2016.
 
 ******************************************
 Gaussian 16:  ES64L-G16RevA.03 25-Dec-2016
                10-May-2021 
 ******************************************
 %chk=Cl.chk
 ---------------------------------------------------------
 # freq hf/3-21g scrf=(smd,solvent=dmso) geom=connectivity
 ---------------------------------------------------------
 1/10=4,30=1,38=1,57=2/1,3;
 2/12=2,17=6,18=5,40=1/2;
 3/5=5,11=9,25=1,30=1,70=32201,71=2,72=21,140=1/1,2,3;
 4//1;
 5/5=2,38=5,53=21,98=1/2;
 8/6=4,10=90,11=11/1;
 10/13=10,15=4/2;
 11/6=3,8=1,9=11,15=111,16=1/1,2,10;
 10/6=1/2;
 6/7=2,8=2,9=2,10=2,28=1/1;
 7/8=1,10=1,25=1/1,2,3,16;
 1/10=4,30=1/3;
 99//99;
 -------------------
 Title Card Required
 -------------------
 Symbolic Z-matrix:
 Charge = -1 Multiplicity = 1
 Cl                    2.19495  -0.91926   0.05704 
 

 GradGradGradGradGradGradGradGradGradGradGradGradGradGradGradGradGradGrad
 Berny optimization.
 Initialization pass.
 Trust Radius=3.00D-01 FncErr=1.00D-07 GrdErr=1.00D-07 EigMax=2.50D+02 EigMin=1.00D-04
 Number of steps in this run=      2 maximum allowed number of steps=      2.
 GradGradGradGradGradGradGradGradGradGradGradGradGradGradGradGradGradGrad

                          Input orientation:                          
 ---------------------------------------------------------------------
 Center     Atomic      Atomic             Coordinates (Angstroms)
 Number     Number       Type             X           Y           Z
 ---------------------------------------------------------------------
      1         17           0        2.194951   -0.919261    0.057040
 ---------------------------------------------------------------------
 Stoichiometry    Cl(1-)
 Framework group  OH[O(Cl)]
 Deg. of freedom     0
 Full point group                 OH      NOp  48
 Largest Abelian subgroup         D2H     NOp   8
 Largest concise Abelian subgroup C1      NOp   1
                         Standard orientation:                         
 ---------------------------------------------------------------------
 Center     Atomic      Atomic             Coordinates (Angstroms)
 Number     Number       Type             X           Y           Z
 ---------------------------------------------------------------------
      1         17           0        0.000000    0.000000    0.000000
 ---------------------------------------------------------------------
 Standard basis: 3-21G (6D, 7F)
 There are     4 symmetry adapted cartesian basis functions of AG  symmetry.
 There are     0 symmetry adapted cartesian basis functions of B1G symmetry.
 There are     0 symmetry adapted cartesian basis functions of B2G symmetry.
 There are     0 symmetry adapted cartesian basis functions of B3G symmetry.
 There are     0 symmetry adapted cartesian basis functions of AU  symmetry.
 There are     3 symmetry adapted cartesian basis functions of B1U symmetry.
 There are     3 symmetry adapted cartesian basis functions of B2U symmetry.
 There are     3 symmetry adapted cartesian basis functions of B3U symmetry.
 There are     4 symmetry adapted basis functions of AG  symmetry.
 There are     0 symmetry adapted basis functions of B1G symmetry.
 There are     0 symmetry adapted basis functions of B2G symmetry.
 There are     0 symmetry adapted basis functions of B3G symmetry.
 There are     0 symmetry adapted basis functions of AU  symmetry.
 There are     3 symmetry adapted basis functions of B1U symmetry.
 There are     3 symmetry adapted basis functions of B2U symmetry.
 There are     3 symmetry adapted basis functions of B3U symmetry.
    13 basis functions,    27 primitive gaussians,    13 cartesian basis functions
     9 alpha electrons        9 beta electrons
       nuclear repulsion energy         0.0000000000 Hartrees.
 NAtoms=    1 NActive=    1 NUniq=    1 SFac= 1.00D+00 NAtFMM=   60 NAOKFM=F Big=F
 Integral buffers will be    131072 words long.
 Raffenetti 1 integral format.
 Two-electron integral symmetry is turned on.
 Force inversion solution in PCM.
 ------------------------------------------------------------------------------
 Polarizable Continuum Model (PCM)
 =================================
 Model                : PCM.
 Atomic radii         : SMD-Coulomb.
 Polarization charges : Total charges.
 Charge compensation  : None.
 Solution method      : Matrix inversion.
 Cavity type          : VdW (van der Waals Surface) (Alpha=1.000).
 Cavity algorithm     : GePol (No added spheres)
                        Default sphere list used, NSphG=    1.
                        Lebedev-Laikov grids with approx.  5.0 points / Ang**2.
                        Smoothing algorithm: York/Karplus (Gamma=1.0000).
                        Polarization charges: spherical gaussians, with
                                              point-specific exponents (IZeta= 3).
                        Self-potential: point-specific (ISelfS= 7).
                        Self-field    : sphere-specific E.n sum rule (ISelfD= 2).
 1st derivatives      : Analytical E(r).r(x)/FMM algorithm (CHGder, D1EAlg=3).
                        Cavity 1st derivative terms included.
 2nd derivatives      : Analytical E(r).r(xy)/FMM algorithm (CHGder, D2EAlg=3).
                        Cavity 2nd derivative terms included.
 Solvent              : DiMethylSulfoxide, Eps=  46.826000 Eps(inf)=   2.007889
 ------------------------------------------------------------------------------
 Spheres list:
 ISph  on   Nord     Re0    Alpha      Xe            Ye            Ze
    1  Cl      1    2.3800  1.000      0.000000      0.000000      0.000000
 ------------------------------------------------------------------------------
 ------------------------------------------------------------------------------
 Atomic radii for non-electrostatic terms: SMD-CDS.
 ------------------------------------------------------------------------------
 Nuclear repulsion after PCM non-electrostatic terms =       -0.0011871324 Hartrees.
 One-electron integrals computed using PRISM.
 NBasis=    13 RedAO= T EigKep=  1.51D-01  NBF=     4     0     0     0     0     3     3     3
 NBsUse=    13 1.00D-06 EigRej= -1.00D+00 NBFU=     4     0     0     0     0     3     3     3
 ExpMin= 1.67D-01 ExpMax= 1.38D+03 ExpMxC= 1.38D+03 IAcc=3 IRadAn=         5 AccDes= 0.00D+00
 Harris functional with IExCor=  205 and IRadAn=       5 diagonalized for initial guess.
 HarFok:  IExCor=  205 AccDes= 0.00D+00 IRadAn=         5 IDoV= 1 UseB2=F ITyADJ=14
 ICtDFT=  3500011 ScaDFX=  1.000000  1.000000  1.000000  1.000000
 FoFCou: FMM=F IPFlag=           0 FMFlag=      100000 FMFlg1=           0
         NFxFlg=           0 DoJE=T BraDBF=F KetDBF=T FulRan=T
         wScrn=  0.000000 ICntrl=       500 IOpCl=  0 I1Cent=   200000004 NGrid=           0
         NMat0=    1 NMatS0=      1 NMatT0=    0 NMatD0=    1 NMtDS0=    0 NMtDT0=    0
 Petite list used in FoFCou.
 Initial guess orbital symmetries:
       Occupied  (A1G) (A1G) (T1U) (T1U) (T1U) (A1G) (T1U) (T1U)
                 (T1U)
       Virtual   (A1G) (T1U) (T1U) (T1U)
 The electronic state of the initial guess is 1-A1G.
 Keep R1 ints in memory in symmetry-blocked form, NReq=1438899.
 Requested convergence on RMS density matrix=1.00D-08 within 128 cycles.
 Requested convergence on MAX density matrix=1.00D-06.
 Requested convergence on             energy=1.00D-06.
 No special actions if energy rises.
 Inv3:  Mode=1 IEnd=      565068.
 Iteration    1 A*A^-1 deviation from unit magnitude is 2.66D-15 for      6.
 Iteration    1 A*A^-1 deviation from orthogonality  is 1.25D-15 for    150     54.
 Iteration    1 A^-1*A deviation from unit magnitude is 3.11D-15 for      5.
 Iteration    1 A^-1*A deviation from orthogonality  is 1.17D-15 for    187    139.
 Error on total polarization charges =  0.00308
 SCF Done:  E(RHF) =  -457.462886695     A.U. after    7 cycles
            NFock=  7  Conv=0.15D-09     -V/T= 2.0008
 SMD-CDS (non-electrostatic) energy       (kcal/mol) =      -0.74
 (included in total energy above)
 Range of M.O.s used for correlation:     1    13
 NBasis=    13 NAE=     9 NBE=     9 NFC=     0 NFV=     0
 NROrb=     13 NOA=     9 NOB=     9 NVA=     4 NVB=     4
 NEqPCM:  Using equilibrium solvation (IEInf=0, Eps=  46.8260, EpsInf=   2.0079)
          Differentiating once with respect to electric field.
                with respect to dipole field.
          Electric field/nuclear overlap derivatives assumed to be zero.
 Keep R1 ints in memory in symmetry-blocked form, NReq=1912805.
          There are     3 degrees of freedom in the 1st order CPHF.  IDoFFX=0 NUNeed=     3.
      3 vectors produced by pass  0 Test12= 1.20D-15 3.33D-08 XBig12= 3.91D-01 6.19D-01.
 AX will form     3 AO Fock derivatives at one time.
      3 vectors produced by pass  1 Test12= 1.20D-15 3.33D-08 XBig12= 3.55D-05 5.84D-03.
      3 vectors produced by pass  2 Test12= 1.20D-15 3.33D-08 XBig12= 1.52D-08 1.19D-04.
      3 vectors produced by pass  3 Test12= 1.20D-15 3.33D-08 XBig12= 9.78D-13 9.45D-07.
 InvSVY:  IOpt=1 It=  1 EMax= 3.53D-18
 Solved reduced A of dimension    12 with     3 vectors.
 End of Minotr F.D. properties file   721 does not exist.
 End of Minotr F.D. properties file   722 does not exist.
 End of Minotr F.D. properties file   788 does not exist.
 Symmetrizing basis deriv contribution to polar:
 IMax=3 JMax=2 DiffMx= 0.00D+00
 G2DrvN: will do     2 centers at a time, making    1 passes.
 PxScal for G2LodP:  IOpCl= 0 ISclPx=1 IMOff=     1 NMtTot=     4 NTT=      91 ScalPx= 1.03D+00
 Calling FoFCou, ICntrl=  3107 FMM=F I1Cent=   0 AccDes= 0.00D+00.
 PxScal for G2LodP:  IOpCl= 0 ISclPx=0 IMOff=     1 NMtTot=     4 NTT=      91 ScalPx= 1.00D+00
 NEqPCM:  Using equilibrium solvation (IEInf=0, Eps=  46.8260, EpsInf=   2.0079)
 G2PCM: DoFxE=T DoFxN=T DoGrad=T DoDP/DQ/DG/TGxP=TFFF NFrqRd=   0 IEInf=0 SqF1=F DoCFld=F IF1Alg=4.
 End of G2Drv F.D. properties file   721 does not exist.
 End of G2Drv F.D. properties file   722 does not exist.
 End of G2Drv F.D. properties file   788 does not exist.
          IDoAtm=1
 NEqPCM:  Using equilibrium solvation (IEInf=0, Eps=  46.8260, EpsInf=   2.0079)
          Differentiating once with respect to electric field.
                with respect to dipole field.
          Differentiating once with respect to nuclear coordinates.
 Keep R1 ints in memory in symmetry-blocked form, NReq=1912828.
          There are     6 degrees of freedom in the 1st order CPHF.  IDoFFX=5 NUNeed=     6.
 Will reuse    3 saved solutions.
      0 vectors produced by pass  0 Test12= 6.00D-16 1.67D-08 XBig12= 0.00D+00 0.00D+00.
 Isotropic polarizability for W=    0.000000        2.58 Bohr**3.
 End of Minotr F.D. properties file   721 does not exist.
 End of Minotr F.D. properties file   722 does not exist.
 End of Minotr F.D. properties file   788 does not exist.

 **********************************************************************

            Population analysis using the SCF density.

 **********************************************************************

 Orbital symmetries:
       Occupied  (A1G) (A1G) (T1U) (T1U) (T1U) (A1G) (T1U) (T1U)
                 (T1U)
       Virtual   (A1G) (T1U) (T1U) (T1U)
 The electronic state is 1-A1G.
 Alpha  occ. eigenvalues -- -103.94263 -10.33173  -7.79466  -7.79466  -7.79466
 Alpha  occ. eigenvalues --   -0.90942  -0.33176  -0.33176  -0.33176
 Alpha virt. eigenvalues --    0.76622   0.90192   0.90192   0.90192
          Condensed to atoms (all electrons):
               1
     1  Cl  18.000000
 Mulliken charges:
               1
     1  Cl  -1.000000
 Sum of Mulliken charges =  -1.00000
 Mulliken charges with hydrogens summed into heavy atoms:
               1
     1  Cl  -1.000000
 APT charges:
               1
     1  Cl  -1.000000
 Sum of APT charges =  -1.00000
 APT charges with hydrogens summed into heavy atoms:
               1
     1  Cl  -1.000000
 Electronic spatial extent (au):  <R**2>=             34.7378
 Charge=             -1.0000 electrons
 Dipole moment (field-independent basis, Debye):
    X=              0.0000    Y=              0.0000    Z=              0.0000  Tot=              0.0000
 Quadrupole moment (field-independent basis, Debye-Ang):
   XX=            -15.5745   YY=            -15.5745   ZZ=            -15.5745
   XY=             -0.0000   XZ=             -0.0000   YZ=             -0.0000
 Traceless Quadrupole moment (field-independent basis, Debye-Ang):
   XX=              0.0000   YY=              0.0000   ZZ=              0.0000
   XY=             -0.0000   XZ=             -0.0000   YZ=             -0.0000
 Octapole moment (field-independent basis, Debye-Ang**2):
  XXX=              0.0000  YYY=              0.0000  ZZZ=              0.0000  XYY=              0.0000
  XXY=              0.0000  XXZ=              0.0000  XZZ=              0.0000  YZZ=              0.0000
  YYZ=              0.0000  XYZ=              0.0000
 Hexadecapole moment (field-independent basis, Debye-Ang**3):
 XXXX=            -18.4976 YYYY=            -18.4976 ZZZZ=            -18.4976 XXXY=             -0.0000
 XXXZ=             -0.0000 YYYX=             -0.0000 YYYZ=             -0.0000 ZZZX=             -0.0000
 ZZZY=             -0.0000 XXYY=             -6.1659 XXZZ=             -6.1659 YYZZ=             -6.1659
 XXYZ=             -0.0000 YYXZ=             -0.0000 ZZXY=             -0.0000
 N-N=-1.187132376443D-03 E-N=-1.096570118074D+03  KE= 4.570852912708D+02
 Symmetry AG   KE= 3.227313837475D+02
 Symmetry B1G  KE= 0.000000000000D+00
 Symmetry B2G  KE= 0.000000000000D+00
 Symmetry B3G  KE= 0.000000000000D+00
 Symmetry AU   KE= 0.000000000000D+00
 Symmetry B1U  KE= 4.478463584110D+01
 Symmetry B2U  KE= 4.478463584110D+01
 Symmetry B3U  KE= 4.478463584110D+01
  Exact polarizability:   2.583  -0.000   2.583   0.000  -0.000   2.583
 Approx polarizability:   1.740  -0.000   1.740  -0.000  -0.000   1.740
 D2PCM: PCM CHGder 2nd derivatives, FixD1E=F FixD2E=F DoIter=F DoCFld=F I1PDM=0
 Calling FoFJK, ICntrl=    100127 FMM=F ISym2X=1 I1Cent= 0 IOpClX= 0 NMat=1 NMatS=1 NMatT=0.
 Full mass-weighted force constant matrix:
 Low frequencies ---    0.0001    0.0001    0.0001
 Diagonal vibrational polarizability:
        0.0000000       0.0000000       0.0000000
 Diagonal vibrational hyperpolarizability:
        0.0000000       0.0000000       0.0000000
 Harmonic frequencies (cm**-1), IR intensities (KM/Mole), Raman scattering
 activities (A**4/AMU), depolarization ratios for plane and unpolarized
 incident light, reduced masses (AMU), force constants (mDyne/A),
 and normal coordinates:

 -------------------
 - Thermochemistry -
 -------------------
 Temperature   298.150 Kelvin.  Pressure   1.00000 Atm.
 Atom     1 has atomic number 17 and mass  34.96885
 Molecular mass:    34.96885 amu.
 Zero-point vibrational energy          0.0 (Joules/Mol)
                                    0.00000 (Kcal/Mol)
 Vibrational temperatures: 
          (Kelvin)
 
 Zero-point correction=                           0.000000 (Hartree/Particle)
 Thermal correction to Energy=                    0.001416
 Thermal correction to Enthalpy=                  0.002360
 Thermal correction to Gibbs Free Energy=        -0.015023
 Sum of electronic and zero-point Energies=           -457.462887
 Sum of electronic and thermal Energies=              -457.461470
 Sum of electronic and thermal Enthalpies=            -457.460526
 Sum of electronic and thermal Free Energies=         -457.477909
 
                     E (Thermal)             CV                S
                      KCal/Mol        Cal/Mol-Kelvin    Cal/Mol-Kelvin
 Total                    0.889              2.981             36.586
 Electronic               0.000              0.000              0.000
 Translational            0.889              2.981             36.586
 Rotational               0.000              0.000              0.000
 Vibrational              0.000              0.000              0.000
                       Q            Log10(Q)             Ln(Q)
 Total Bot       0.812786D+07          6.909976         15.910808
 Total V=0       0.812786D+07          6.909976         15.910808
 Vib (Bot)       0.100000D+01          0.000000          0.000000
 Vib (V=0)       0.100000D+01          0.000000          0.000000
 Electronic      0.100000D+01          0.000000          0.000000
 Translational   0.812786D+07          6.909976         15.910808
 Rotational      0.100000D+01          0.000000          0.000000
 ***** Axes restored to original set *****
 -------------------------------------------------------------------
 Center     Atomic                   Forces (Hartrees/Bohr)
 Number     Number              X              Y              Z
 -------------------------------------------------------------------
      1       17          -0.000000000    0.000000000    0.000000000
 -------------------------------------------------------------------
 Cartesian Forces:  Max     0.000000000 RMS     0.000000000

 GradGradGradGradGradGradGradGradGradGradGradGradGradGradGradGradGradGrad
 Berny optimization.
 Search for a local minimum.
 Step number   1 out of a maximum of    2
 All quantities printed in internal units (Hartrees-Bohrs-Radians)
 Second derivative matrix not updated -- analytic derivatives used.
 The second derivative matrix:
                          X1        Y1        Z1
           X1           0.00000
           Y1           0.00000   0.00000
           Z1          -0.00000  -0.00000   0.00000
 ITU=  0
     Eigenvalues --- 
 Angle between quadratic step and forces=  90.00 degrees.
 ClnCor:  largest displacement from symmetrization is 0.00D+00 for atom     0.
 Linear search not attempted -- first point.
 ClnCor:  largest displacement from symmetrization is 0.00D+00 for atom     0.
 B after Tr=     0.000000    0.000000    0.000000
         Rot=    1.000000    0.000000    0.000000    0.000000 Ang=   0.00 deg.
 Variable       Old X    -DE/DX   Delta X   Delta X   Delta X     New X
                                 (Linear)    (Quad)   (Total)
    X1        4.14786  -0.00000   0.00000   0.00000   0.00000   4.14786
    Y1       -1.73715   0.00000   0.00000   0.00000   0.00000  -1.73715
    Z1        0.10779   0.00000   0.00000   0.00000   0.00000   0.10779
         Item               Value     Threshold  Converged?
 Maximum Force            0.000000     0.000450     YES
 RMS     Force            0.000000     0.000300     YES
 Maximum Displacement     0.000000     0.001800     YES
 RMS     Displacement     0.000000     0.001200     YES
 Predicted change in Energy=-0.000000D+00
 Optimization completed.
    -- Stationary point found.
 GradGradGradGradGradGradGradGradGradGradGradGradGradGradGradGradGradGrad

 Dipole is zero, so no output in dipole orientation.

 ----------------------------------------------------------------------

 Electric dipole moment (input orientation):
 (Debye = 10**-18 statcoulomb cm , SI units = C m)
                  (au)            (Debye)         (10**-30 SI)
   Tot        0.000000D+00      0.000000D+00      0.000000D+00
   x          0.000000D+00      0.000000D+00      0.000000D+00
   y          0.000000D+00      0.000000D+00      0.000000D+00
   z          0.000000D+00      0.000000D+00      0.000000D+00

 Dipole polarizability, Alpha (input orientation).
 (esu units = cm**3 , SI units = C**2 m**2 J**-1)
 Alpha(0;0):
               (au)            (10**-24 esu)      (10**-40 SI)
   iso        0.258274D+01      0.382722D+00      0.425836D+00
   aniso      0.000000D+00      0.000000D+00      0.000000D+00
   xx         0.258274D+01      0.382722D+00      0.425836D+00
   yx         0.000000D+00      0.000000D+00      0.000000D+00
   yy         0.258274D+01      0.382722D+00      0.425836D+00
   zx         0.000000D+00      0.000000D+00      0.000000D+00
   zy         0.000000D+00      0.000000D+00      0.000000D+00
   zz         0.258274D+01      0.382722D+00      0.425836D+00

 ----------------------------------------------------------------------
 1\1\GINC-C412-022\Freq\RHF\3-21G\Cl1(1-)\TG873513\10-May-2021\0\\# fre
 q hf/3-21g scrf=(smd,solvent=dmso) geom=connectivity\\Title Card Requi
 red\\-1,1\Cl,2.19495067,-0.91926058,0.0570399\\Version=ES64L-G16RevA.0
 3\State=1-A1G\HF=-457.4628867\RMSD=1.502e-10\RMSF=1.372e-16\Thermal=0.
 0014163\Dipole=0.,0.,0.\DipoleDeriv=-1.,0.,0.,0.,-1.,0.,0.,0.,-1.\Pola
 r=2.5827374,0.,2.5827374,0.,0.,2.5827374\PolarDeriv=0.,0.,0.,0.,0.,0.,
 0.,0.,0.,0.,0.,0.,0.,0.,0.,0.,0.,0.\HyperPolar=0.,0.,0.,0.,0.,0.,0.,0.
 ,0.,0.\Quadrupole=0.,0.,0.,0.,0.,0.\PG=OH [O(Cl1)]\NImag=0\\0.,0.,0.,0
 .,0.,0.\\0.,0.,0.\\\@


 SIC AS THE CAWSE OF EWERY THING IS, SIC WILBE THE EFFECT.
 -- PROVERBS AND REASONS OF THE YEAR 1585
           AS REPRINTED IN PAISLEY MAGAZINE 1828.
 Job cpu time:       0 days  0 hours  0 minutes 22.4 seconds.
 Elapsed time:       0 days  0 hours  0 minutes 22.9 seconds.
 File lengths (MBytes):  RWF=     10 Int=      0 D2E=      0 Chk=      2 Scr=      1
 Normal termination of Gaussian 16 at Mon May 10 16:05:49 2021.
