 Entering Gaussian System, Link 0=g16
 Input=AllylChlorideClTS.gjf
 Output=AllylChlorideClTS.log
 Initial command:
 /home1/apps/gaussian/16rA.03/g16/l1.exe "/scratch/08052/tg873513/Gau-237190.inp" -scrdir="/scratch/08052/tg873513/"
 Entering Link 1 = /home1/apps/gaussian/16rA.03/g16/l1.exe PID=    237191.
  
 Copyright (c) 1988,1990,1992,1993,1995,1998,2003,2009,2016,
            Gaussian, Inc.  All Rights Reserved.
  
 This is part of the Gaussian(R) 16 program.  It is based on
 the Gaussian(R) 09 system (copyright 2009, Gaussian, Inc.),
 the Gaussian(R) 03 system (copyright 2003, Gaussian, Inc.),
 the Gaussian(R) 98 system (copyright 1998, Gaussian, Inc.),
 the Gaussian(R) 94 system (copyright 1995, Gaussian, Inc.),
 the Gaussian 92(TM) system (copyright 1992, Gaussian, Inc.),
 the Gaussian 90(TM) system (copyright 1990, Gaussian, Inc.),
 the Gaussian 88(TM) system (copyright 1988, Gaussian, Inc.),
 the Gaussian 86(TM) system (copyright 1986, Carnegie Mellon
 University), and the Gaussian 82(TM) system (copyright 1983,
 Carnegie Mellon University). Gaussian is a federally registered
 trademark of Gaussian, Inc.
  
 This software contains proprietary and confidential information,
 including trade secrets, belonging to Gaussian, Inc.
  
 This software is provided under written license and may be
 used, copied, transmitted, or stored only in accord with that
 written license.
  
 The following legend is applicable only to US Government
 contracts under FAR:
  
                    RESTRICTED RIGHTS LEGEND
  
 Use, reproduction and disclosure by the US Government is
 subject to restrictions as set forth in subparagraphs (a)
 and (c) of the Commercial Computer Software - Restricted
 Rights clause in FAR 52.227-19.
  
 Gaussian, Inc.
 340 Quinnipiac St., Bldg. 40, Wallingford CT 06492
  
  
 ---------------------------------------------------------------
 Warning -- This program may not be used in any manner that
 competes with the business of Gaussian, Inc. or will provide
 assistance to any competitor of Gaussian, Inc.  The licensee
 of this program is prohibited from giving any competitor of
 Gaussian, Inc. access to this program.  By using this program,
 the user acknowledges that Gaussian, Inc. is engaged in the
 business of creating and licensing software in the field of
 computational chemistry and represents and warrants to the
 licensee that it is not a competitor of Gaussian, Inc. and that
 it will not use this program in any manner prohibited above.
 ---------------------------------------------------------------
  

 Cite this work as:
 Gaussian 16, Revision A.03,
 M. J. Frisch, G. W. Trucks, H. B. Schlegel, G. E. Scuseria, 
 M. A. Robb, J. R. Cheeseman, G. Scalmani, V. Barone, 
 G. A. Petersson, H. Nakatsuji, X. Li, M. Caricato, A. V. Marenich, 
 J. Bloino, B. G. Janesko, R. Gomperts, B. Mennucci, H. P. Hratchian, 
 J. V. Ortiz, A. F. Izmaylov, J. L. Sonnenberg, D. Williams-Young, 
 F. Ding, F. Lipparini, F. Egidi, J. Goings, B. Peng, A. Petrone, 
 T. Henderson, D. Ranasinghe, V. G. Zakrzewski, J. Gao, N. Rega, 
 G. Zheng, W. Liang, M. Hada, M. Ehara, K. Toyota, R. Fukuda, 
 J. Hasegawa, M. Ishida, T. Nakajima, Y. Honda, O. Kitao, H. Nakai, 
 T. Vreven, K. Throssell, J. A. Montgomery, Jr., J. E. Peralta, 
 F. Ogliaro, M. J. Bearpark, J. J. Heyd, E. N. Brothers, K. N. Kudin, 
 V. N. Staroverov, T. A. Keith, R. Kobayashi, J. Normand, 
 K. Raghavachari, A. P. Rendell, J. C. Burant, S. S. Iyengar, 
 J. Tomasi, M. Cossi, J. M. Millam, M. Klene, C. Adamo, R. Cammi, 
 J. W. Ochterski, R. L. Martin, K. Morokuma, O. Farkas, 
 J. B. Foresman, and D. J. Fox, Gaussian, Inc., Wallingford CT, 2016.
 
 ******************************************
 Gaussian 16:  ES64L-G16RevA.03 25-Dec-2016
                10-May-2021 
 ******************************************
 %oldchk=AllylChlorideClTS.chk
 %chk=AllylChlorideClTS-TS.chk
 Copying data from "AllylChlorideClTS.chk" to current chk file "AllylChlorideClTS-TS.chk"
 IOpt=  2 FromEx=T IUOpen= 4 IOptOp= 5 NList=   0 IFRang= 0 IUIn= 4 IUOut= 2.
 ----------------------------------------------------------------------
 # opt=(ts,noeigen,readfc,modredundant) freq hf/3-21g scrf=(smd,solvent
 =dmso) nosymm geom=checkpoint guess=read
 ----------------------------------------------------------------------
 1/5=1,10=3,11=1,18=120,26=6,29=2,38=1/1,3;
 2/9=110,12=2,15=1,40=1/2;
 3/5=5,11=9,14=-4,25=1,30=1,70=32201,71=1,72=21,116=-2/1,2,3;
 4/5=1/1;
 5/5=2,38=6,53=21/2;
 6/7=2,8=2,9=2,10=2,28=1/1;
 7/30=1/1,2,3,16;
 1/5=1,11=1,18=20,26=6/3(2);
 2/9=110,15=1/2;
 99//99;
 2/9=110,15=1/2;
 3/5=5,11=9,14=-2,25=1,30=1,70=32205,71=1,72=21/1,2,3;
 4/5=5,16=3,69=1/1;
 5/5=2,38=5,53=21/2;
 7/30=1/1,2,3,16;
 1/5=1,11=1,18=20,26=6/3(-5);
 2/9=110,15=1/2;
 6/7=2,8=2,9=2,10=2,19=2,28=1/1;
 99/9=1/99;
 -------------------
 Title Card Required
 -------------------
 Structure from the checkpoint file:  "AllylChlorideClTS-TS.chk"
 Charge = -1 Multiplicity = 1
 Redundant internal coordinates found in file.  (old form).
 C,0,-0.290289215,-0.8858065531,0.0674033537
 H,0,0.6007632219,-1.485363254,0.0245781973
 H,0,-1.2213726388,-1.4123728725,0.1573248761
 C,0,1.0118266802,1.1819325199,-0.1116872583
 C,0,-0.2475887734,0.429752874,0.0120524767
 H,0,-1.1425132255,1.019263475,0.055285699
 H,0,1.9398457223,0.6675720299,-0.1607851803
 H,0,1.0019467677,2.2399101113,-0.1476619449
 Cl,0,1.4317208228,1.5055986407,2.1766003935
 Cl,0,1.0820487577,1.3327527288,-2.4496755627
 Recover connectivity data from disk.
 The following ModRedundant input section has been read:
 B       4       9 A                                                           
 B       4      10 A                                                           
 

 GradGradGradGradGradGradGradGradGradGradGradGradGradGradGradGradGradGrad
 Berny optimization.
 Initialization pass.
 Force constant matrix read from checkpoint file:
 "AllylChlorideClTS-TS.chk"
                           ----------------------------
                           !    Initial Parameters    !
                           ! (Angstroms and Degrees)  !
 --------------------------                            --------------------------
 ! Name  Definition              Value          Derivative Info.                !
 --------------------------------------------------------------------------------
 ! R1    R(1,2)                  1.0748         D2E/DX2 =    0.3955             !
 ! R2    R(1,3)                  1.0734         D2E/DX2 =    0.3991             !
 ! R3    R(1,5)                  1.3174         D2E/DX2 =    0.7284             !
 ! R4    R(4,5)                  1.4721         D2E/DX2 =    0.3408             !
 ! R5    R(4,7)                  1.0622         D2E/DX2 =    0.4319             !
 ! R6    R(4,8)                  1.0586         D2E/DX2 =    0.4408             !
 ! R7    R(4,9)                  2.3489         D2E/DX2 =    0.0501             !
 ! R8    R(4,10)                 2.3439         D2E/DX2 =    0.05               !
 ! R9    R(5,6)                  1.0725         D2E/DX2 =    0.3996             !
 ! A1    A(2,1,3)              116.6653         D2E/DX2 =    0.0853             !
 ! A2    A(2,1,5)              121.9029         D2E/DX2 =    0.0998             !
 ! A3    A(3,1,5)              121.4318         D2E/DX2 =    0.0982             !
 ! A4    A(5,4,7)              120.259          D2E/DX2 =    0.0846             !
 ! A5    A(5,4,8)              120.3643         D2E/DX2 =    0.0856             !
 ! A6    A(5,4,9)               98.1318         D2E/DX2 =    0.0712             !
 ! A7    A(5,4,10)              98.1838         D2E/DX2 =    0.072              !
 ! A8    A(7,4,8)              119.376          D2E/DX2 =    0.0751             !
 ! A9    A(7,4,9)               87.4538         D2E/DX2 =    0.0244             !
 ! A10   A(7,4,10)              87.6431         D2E/DX2 =    0.0247             !
 ! A11   A(8,4,9)               84.0918         D2E/DX2 =    0.0286             !
 ! A12   A(8,4,10)              84.3804         D2E/DX2 =    0.0285             !
 ! A13   A(1,5,4)              122.7845         D2E/DX2 =    0.1391             !
 ! A14   A(1,5,6)              121.3417         D2E/DX2 =    0.1092             !
 ! A15   A(4,5,6)              115.8738         D2E/DX2 =    0.1111             !
 ! A16   L(9,4,10,5,-1)        196.3156         D2E/DX2 =    0.0426             !
 ! A17   L(9,4,10,5,-2)        176.1488         D2E/DX2 =    0.0143             !
 ! D1    D(2,1,5,4)             -0.0097         D2E/DX2 =    0.0241             !
 ! D2    D(2,1,5,6)            179.9826         D2E/DX2 =    0.025              !
 ! D3    D(3,1,5,4)           -179.9758         D2E/DX2 =    0.0262             !
 ! D4    D(3,1,5,6)              0.0165         D2E/DX2 =    0.0239             !
 ! D5    D(7,4,5,1)              0.0182         D2E/DX2 =    0.0131             !
 ! D6    D(7,4,5,6)           -179.9744         D2E/DX2 =    0.0141             !
 ! D7    D(8,4,5,1)           -179.6724         D2E/DX2 =    0.0162             !
 ! D8    D(8,4,5,6)              0.3349         D2E/DX2 =    0.0148             !
 ! D9    D(9,4,5,1)            -91.7814         D2E/DX2 =    0.0094             !
 ! D10   D(9,4,5,6)             88.226          D2E/DX2 =    0.0084             !
 ! D11   D(10,4,5,1)            92.0699         D2E/DX2 =    0.0092             !
 ! D12   D(10,4,5,6)           -87.9228         D2E/DX2 =    0.0083             !
 --------------------------------------------------------------------------------
 Trust Radius=3.00D-01 FncErr=5.00D-06 GrdErr=5.00D-06 EigMax=2.50D+02 EigMin=1.00D-04
 Number of steps in this run=     48 maximum allowed number of steps=    100.
 Search for a saddle point of order  1.
 GradGradGradGradGradGradGradGradGradGradGradGradGradGradGradGradGradGrad

                          Input orientation:                          
 ---------------------------------------------------------------------
 Center     Atomic      Atomic             Coordinates (Angstroms)
 Number     Number       Type             X           Y           Z
 ---------------------------------------------------------------------
      1          6           0       -0.290289   -0.885807    0.067403
      2          1           0        0.600763   -1.485363    0.024578
      3          1           0       -1.221373   -1.412373    0.157325
      4          6           0        1.011827    1.181933   -0.111687
      5          6           0       -0.247589    0.429753    0.012052
      6          1           0       -1.142513    1.019263    0.055286
      7          1           0        1.939846    0.667572   -0.160785
      8          1           0        1.001947    2.239910   -0.147662
      9         17           0        1.431721    1.505599    2.176600
     10         17           0        1.082049    1.332753   -2.449676
 ---------------------------------------------------------------------
                    Distance matrix (angstroms):
                    1          2          3          4          5
     1  C    0.000000
     2  H    1.074838   0.000000
     3  H    1.073440   1.828422   0.000000
     4  C    2.450127   2.702223   3.433652   0.000000
     5  C    1.317416   2.094643   2.088728   1.472146   0.000000
     6  H    2.087037   3.051739   2.435054   2.166915   1.072512
     7  H    2.727372   2.542171   3.797455   1.062166   2.207102
     8  H    3.389134   3.750770   4.286646   1.058635   2.205338
     9  Cl   3.623927   3.777240   4.430681   2.348900   2.943262
    10  Cl   3.625052   3.780919   4.431469   2.343900   2.939974
                    6          7          8          9         10
     6  H    0.000000
     7  H    3.109873   0.000000
     8  H    2.475858   1.830867   0.000000
     9  Cl   3.370931   2.534532   2.475099   0.000000
    10  Cl   3.364786   2.533239   2.475604   4.642691   0.000000
 Symmetry turned off by external request.
 Stoichiometry    C3H5Cl2(1-)
 Framework group  C1[X(C3H5Cl2)]
 Deg. of freedom    24
 Full point group                 C1      NOp   1
 Rotational constants (GHZ):           4.0358571           1.3059335           1.0272463
 Standard basis: 3-21G (6D, 7F)
    63 basis functions,   114 primitive gaussians,    63 cartesian basis functions
    29 alpha electrons       29 beta electrons
       nuclear repulsion energy       239.0664795178 Hartrees.
 NAtoms=   10 NActive=   10 NUniq=   10 SFac= 1.00D+00 NAtFMM=   60 NAOKFM=F Big=F
 Integral buffers will be    131072 words long.
 Raffenetti 1 integral format.
 Two-electron integral symmetry is turned off.
 ------------------------------------------------------------------------------
 Polarizable Continuum Model (PCM)
 =================================
 Model                : PCM.
 Atomic radii         : SMD-Coulomb.
 Polarization charges : Total charges.
 Charge compensation  : None.
 Solution method      : On-the-fly selection.
 Cavity type          : VdW (van der Waals Surface) (Alpha=1.000).
 Cavity algorithm     : GePol (No added spheres)
                        Default sphere list used, NSphG=   10.
                        Lebedev-Laikov grids with approx.  5.0 points / Ang**2.
                        Smoothing algorithm: York/Karplus (Gamma=1.0000).
                        Polarization charges: spherical gaussians, with
                                              point-specific exponents (IZeta= 3).
                        Self-potential: point-specific (ISelfS= 7).
                        Self-field    : sphere-specific E.n sum rule (ISelfD= 2).
 1st derivatives      : Analytical E(r).r(x)/FMM algorithm (CHGder, D1EAlg=3).
                        Cavity 1st derivative terms included.
 Solvent              : DiMethylSulfoxide, Eps=  46.826000 Eps(inf)=   2.007889
 ------------------------------------------------------------------------------
 Spheres list:
 ISph  on   Nord     Re0    Alpha      Xe            Ye            Ze
    1   C      1    1.8500  1.000     -0.290289     -0.885807      0.067403
    2   H      2    1.2000  1.000      0.600763     -1.485363      0.024578
    3   H      3    1.2000  1.000     -1.221373     -1.412373      0.157325
    4   C      4    1.8500  1.000      1.011827      1.181933     -0.111687
    5   C      5    1.8500  1.000     -0.247589      0.429753      0.012052
    6   H      6    1.2000  1.000     -1.142513      1.019263      0.055286
    7   H      7    1.2000  1.000      1.939846      0.667572     -0.160785
    8   H      8    1.2000  1.000      1.001947      2.239910     -0.147662
    9  Cl      9    2.3800  1.000      1.431721      1.505599      2.176600
   10  Cl     10    2.3800  1.000      1.082049      1.332753     -2.449676
 ------------------------------------------------------------------------------
 ------------------------------------------------------------------------------
 Atomic radii for non-electrostatic terms: SMD-CDS.
 ------------------------------------------------------------------------------
 Nuclear repulsion after PCM non-electrostatic terms =      239.0659938830 Hartrees.
 One-electron integrals computed using PRISM.
 NBasis=    63 RedAO= T EigKep=  1.01D-02  NBF=    63
 NBsUse=    63 1.00D-06 EigRej= -1.00D+00 NBFU=    63
 Initial guess from the checkpoint file:  "AllylChlorideClTS-TS.chk"
 B after Tr=     0.000000    0.000000    0.000000
         Rot=    1.000000    0.000000    0.000000    0.000000 Ang=   0.00 deg.
 Keep R1 ints in memory in canonical form, NReq=3540838.
 Requested convergence on RMS density matrix=1.00D-08 within 128 cycles.
 Requested convergence on MAX density matrix=1.00D-06.
 Requested convergence on             energy=1.00D-06.
 No special actions if energy rises.
 Inv3:  Mode=1 IEnd=     4348848.
 Iteration    1 A*A^-1 deviation from unit magnitude is 2.66D-15 for    733.
 Iteration    1 A*A^-1 deviation from orthogonality  is 2.62D-15 for    215    128.
 Iteration    1 A^-1*A deviation from unit magnitude is 2.66D-15 for    932.
 Iteration    1 A^-1*A deviation from orthogonality  is 2.09D-15 for    258    215.
 Error on total polarization charges =  0.01084
 SCF Done:  E(RHF) =  -1030.59379835     A.U. after    1 cycles
            NFock=  1  Conv=0.30D-09     -V/T= 2.0009
 SMD-CDS (non-electrostatic) energy       (kcal/mol) =      -0.30
 (included in total energy above)

 **********************************************************************

            Population analysis using the SCF density.

 **********************************************************************

 Alpha  occ. eigenvalues -- -103.98695-103.98602 -11.25601 -11.18145 -11.17066
 Alpha  occ. eigenvalues --  -10.37693 -10.37599  -7.84010  -7.83915  -7.83876
 Alpha  occ. eigenvalues --   -7.83873  -7.83783  -7.83781  -1.09233  -0.98294
 Alpha  occ. eigenvalues --   -0.96069  -0.90149  -0.76970  -0.67522  -0.62097
 Alpha  occ. eigenvalues --   -0.56795  -0.51028  -0.46783  -0.38439  -0.37225
 Alpha  occ. eigenvalues --   -0.36616  -0.36343  -0.33849  -0.33118
 Alpha virt. eigenvalues --    0.10532   0.25258   0.28893   0.31364   0.33957
 Alpha virt. eigenvalues --    0.37971   0.39062   0.50989   0.58756   0.75367
 Alpha virt. eigenvalues --    0.76470   0.82074   0.85185   0.85597   0.86654
 Alpha virt. eigenvalues --    0.91921   0.92328   0.94723   0.95506   1.04331
 Alpha virt. eigenvalues --    1.05881   1.11943   1.18897   1.29047   1.29588
 Alpha virt. eigenvalues --    1.32633   1.34171   1.38912   1.43608   1.56640
 Alpha virt. eigenvalues --    1.64765   1.75634   1.99229   2.10091
          Condensed to atoms (all electrons):
               1          2          3          4          5          6
     1  C    5.239805   0.396459   0.392302  -0.087740   0.502076  -0.031216
     2  H    0.396459   0.422968  -0.016651  -0.000495  -0.053238   0.001602
     3  H    0.392302  -0.016651   0.421679   0.002352  -0.048825  -0.001527
     4  C   -0.087740  -0.000495   0.002352   5.279927   0.279333  -0.033477
     5  C    0.502076  -0.053238  -0.048825   0.279333   5.337812   0.397859
     6  H   -0.031216   0.001602  -0.001527  -0.033477   0.397859   0.390401
     7  H    0.003799   0.001136  -0.000009   0.385841  -0.036723   0.001041
     8  H    0.001826   0.000045  -0.000029   0.386763  -0.032617   0.000080
     9  Cl  -0.004927   0.000163  -0.000008   0.024356  -0.042926   0.000365
    10  Cl  -0.004903   0.000158  -0.000010   0.026222  -0.043595   0.000365
               7          8          9         10
     1  C    0.003799   0.001826  -0.004927  -0.004903
     2  H    0.001136   0.000045   0.000163   0.000158
     3  H   -0.000009  -0.000029  -0.000008  -0.000010
     4  C    0.385841   0.386763   0.024356   0.026222
     5  C   -0.036723  -0.032617  -0.042926  -0.043595
     6  H    0.001041   0.000080   0.000365   0.000365
     7  H    0.369842  -0.006768  -0.023367  -0.023630
     8  H   -0.006768   0.371261  -0.028238  -0.028495
     9  Cl  -0.023367  -0.028238  17.826937   0.004190
    10  Cl  -0.023630  -0.028495   0.004190  17.821534
 Mulliken charges:
               1
     1  C   -0.407481
     2  H    0.247855
     3  H    0.250725
     4  C   -0.263081
     5  C   -0.259156
     6  H    0.274507
     7  H    0.328838
     8  H    0.336172
     9  Cl  -0.756543
    10  Cl  -0.751836
 Sum of Mulliken charges =  -1.00000
 Mulliken charges with hydrogens summed into heavy atoms:
               1
     1  C    0.091099
     4  C    0.401929
     5  C    0.015351
     9  Cl  -0.756543
    10  Cl  -0.751836
 Electronic spatial extent (au):  <R**2>=           1388.6272
 Charge=             -1.0000 electrons
 Dipole moment (field-independent basis, Debye):
    X=             -7.0666    Y=             -8.0105    Z=              0.7307  Tot=             10.7070
 Quadrupole moment (field-independent basis, Debye-Ang):
   XX=            -55.5317   YY=            -57.0141   ZZ=            -93.0162
   XY=            -10.7460   XZ=             -2.5846   YZ=             -0.7071
 Traceless Quadrupole moment (field-independent basis, Debye-Ang):
   XX=             12.9890   YY=             11.5066   ZZ=            -24.4956
   XY=            -10.7460   XZ=             -2.5846   YZ=             -0.7071
 Octapole moment (field-independent basis, Debye-Ang**2):
  XXX=           -132.6005  YYY=           -152.7838  ZZZ=             29.5464  XYY=            -56.1858
  XXY=            -61.3014  XXZ=             -2.5572  XZZ=            -92.4939  YZZ=           -105.8186
  YYZ=              1.2491  XYZ=             -5.0190
 Hexadecapole moment (field-independent basis, Debye-Ang**3):
 XXXX=           -413.3799 YYYY=           -534.0806 ZZZZ=          -1246.1099 XXXY=           -206.8232
 XXXZ=            -32.5478 YYYX=           -206.9045 YYYZ=             -5.2011 ZZZX=            -12.7445
 ZZZY=             19.4827 XXYY=           -173.4601 XXZZ=           -305.7882 YYZZ=           -345.0274
 XXYZ=            -11.2045 YYXZ=            -16.5347 ZZXY=           -137.0837
 N-N= 2.390659938830D+02 E-N=-2.938904311594D+03  KE= 1.029637561392D+03
 D1PCM: PCM CHGder 1st derivatives, ID1Alg=3 FixD1E=F DoIter=F DoCFld=F I1PDM=0.
 Calling FoFJK, ICntrl=      2127 FMM=F ISym2X=0 I1Cent= 0 IOpClX= 0 NMat=1 NMatS=1 NMatT=0.
 -------------------------------------------------------------------
 Center     Atomic                   Forces (Hartrees/Bohr)
 Number     Number              X              Y              Z
 -------------------------------------------------------------------
      1        6          -0.000023105   -0.000090257    0.000017206
      2        1           0.000008197    0.000006043    0.000029478
      3        1          -0.000003121    0.000033697    0.000024862
      4        6          -0.003920591   -0.003797949    0.000190061
      5        6           0.000008583    0.000103806    0.000010771
      6        1          -0.000016351    0.000000603    0.000002790
      7        1           0.000016422   -0.000006936    0.000011504
      8        1          -0.000003966   -0.000027962   -0.000038001
      9       17           0.003384604    0.002610213    0.018330217
     10       17           0.000549328    0.001168742   -0.018578888
 -------------------------------------------------------------------
 Cartesian Forces:  Max     0.018578888 RMS     0.004936144

 GradGradGradGradGradGradGradGradGradGradGradGradGradGradGradGradGradGrad
 Berny optimization.
 FormGI is forming the generalized inverse of G from B-inverse, IUseBI=4.
 Internal  Forces:  Max     0.018833070 RMS     0.004295391
 Search for a saddle point.
 Step number   1 out of a maximum of   48
 All quantities printed in internal units (Hartrees-Bohrs-Radians)
 Swapping is turned off.
 Second derivative matrix not updated -- first step.
 ITU=  0
     Eigenvalues ---   -0.01509   0.00282   0.02241   0.03631   0.03646
     Eigenvalues ---    0.05463   0.05649   0.05825   0.08707   0.08778
     Eigenvalues ---    0.11144   0.12218   0.12592   0.13892   0.15902
     Eigenvalues ---    0.16187   0.21348   0.35471   0.39666   0.40080
     Eigenvalues ---    0.40147   0.43297   0.44194   0.73486
 Eigenvectors required to have negative eigenvalues:
                          R8        R7        D8        D7        D5
   1                    0.55655  -0.55543  -0.27280  -0.26508   0.22951
                          D6        A11       A12       A9        A10
   1                    0.22179   0.19145  -0.19018   0.16150  -0.16006
 RFO step:  Lambda0=7.121166547D-07 Lambda=-8.75763556D-03.
 Linear search not attempted -- option 19 set.
 Maximum step size (   0.300) exceeded in Quadratic search.
    -- Step size scaled by   0.890
 Iteration  1 RMS(Cart)=  0.04712880 RMS(Int)=  0.00195479
 Iteration  2 RMS(Cart)=  0.00201539 RMS(Int)=  0.00001639
 Iteration  3 RMS(Cart)=  0.00000161 RMS(Int)=  0.00001637
 Iteration  4 RMS(Cart)=  0.00000000 RMS(Int)=  0.00001637
 Variable       Old X    -DE/DX   Delta X   Delta X   Delta X     New X
                                 (Linear)    (Quad)   (Total)
    R1        2.03115   0.00001   0.00000  -0.00043  -0.00043   2.03072
    R2        2.02851  -0.00002   0.00000  -0.00052  -0.00052   2.02799
    R3        2.48955   0.00006   0.00000   0.00399   0.00399   2.49355
    R4        2.78195  -0.00001   0.00000  -0.02196  -0.02196   2.75999
    R5        2.00720   0.00001   0.00000   0.00288   0.00288   2.01008
    R6        2.00053  -0.00002   0.00000   0.00289   0.00289   2.00342
    R7        4.43878   0.01883   0.00000   0.20524   0.20524   4.64402
    R8        4.42933   0.01861   0.00000   0.21098   0.21098   4.64031
    R9        2.02675   0.00001   0.00000  -0.00096  -0.00096   2.02580
    A1        2.03619   0.00002   0.00000   0.00075   0.00075   2.03695
    A2        2.12761  -0.00001   0.00000  -0.00099  -0.00099   2.12662
    A3        2.11938  -0.00002   0.00000   0.00024   0.00024   2.11962
    A4        2.09892   0.00002   0.00000   0.00306   0.00305   2.10196
    A5        2.10075  -0.00002   0.00000   0.00521   0.00520   2.10596
    A6        1.71272  -0.00000   0.00000   0.01953   0.01951   1.73224
    A7        1.71363   0.00000   0.00000   0.01719   0.01718   1.73081
    A8        2.08350   0.00000   0.00000  -0.00825  -0.00824   2.07526
    A9        1.52636  -0.00001   0.00000  -0.00581  -0.00586   1.52049
   A10        1.52966   0.00001   0.00000  -0.00749  -0.00753   1.52213
   A11        1.46768   0.00001   0.00000  -0.01141  -0.01147   1.45621
   A12        1.47272  -0.00001   0.00000  -0.01406  -0.01410   1.45861
   A13        2.14299  -0.00002   0.00000  -0.01168  -0.01168   2.13132
   A14        2.11781  -0.00001   0.00000   0.00128   0.00128   2.11909
   A15        2.02238   0.00003   0.00000   0.01040   0.01040   2.03278
   A16        3.42635  -0.00000   0.00000   0.03672   0.03669   3.46304
   A17        3.07438   0.00000   0.00000  -0.00706  -0.00706   3.06732
    D1       -0.00017   0.00001   0.00000   0.00063   0.00063   0.00046
    D2        3.14129   0.00001   0.00000  -0.00001  -0.00001   3.14128
    D3       -3.14117   0.00000   0.00000   0.00039   0.00038  -3.14079
    D4        0.00029   0.00000   0.00000  -0.00026  -0.00026   0.00003
    D5        0.00032  -0.00001   0.00000   0.00132   0.00133   0.00164
    D6       -3.14115  -0.00001   0.00000   0.00194   0.00194  -3.13921
    D7       -3.13587  -0.00001   0.00000  -0.00255  -0.00255  -3.13842
    D8        0.00585  -0.00000   0.00000  -0.00193  -0.00194   0.00391
    D9       -1.60189   0.00001   0.00000  -0.00386  -0.00386  -1.60575
   D10        1.53983   0.00001   0.00000  -0.00325  -0.00325   1.53658
   D11        1.60692   0.00000   0.00000   0.00319   0.00319   1.61011
   D12       -1.53454   0.00001   0.00000   0.00381   0.00381  -1.53073
         Item               Value     Threshold  Converged?
 Maximum Force            0.018833     0.000450     NO 
 RMS     Force            0.004295     0.000300     NO 
 Maximum Displacement     0.198277     0.001800     NO 
 RMS     Displacement     0.049012     0.001200     NO 
 Predicted change in Energy=-4.719615D-03
 GradGradGradGradGradGradGradGradGradGradGradGradGradGradGradGradGradGrad

                          Input orientation:                          
 ---------------------------------------------------------------------
 Center     Atomic      Atomic             Coordinates (Angstroms)
 Number     Number       Type             X           Y           Z
 ---------------------------------------------------------------------
      1          6           0       -0.293003   -0.888285    0.067372
      2          1           0        0.602061   -1.481430    0.024640
      3          1           0       -1.220605   -1.420594    0.156171
      4          6           0        0.995672    1.168843   -0.108501
      5          6           0       -0.258092    0.429672    0.013292
      6          1           0       -1.155408    1.014630    0.056221
      7          1           0        1.923601    0.651277   -0.158560
      8          1           0        0.997128    2.228305   -0.147104
      9         17           0        1.470762    1.536177    2.274502
     10         17           0        1.104272    1.354642   -2.554599
 ---------------------------------------------------------------------
                    Distance matrix (angstroms):
                    1          2          3          4          5
     1  C    0.000000
     2  H    1.074610   0.000000
     3  H    1.073166   1.828418   0.000000
     4  C    2.433801   2.682648   3.418643   0.000000
     5  C    1.319528   2.095782   2.090534   1.460524   0.000000
     6  H    2.089247   3.052869   2.438146   2.162882   1.072005
     7  H    2.708252   2.515645   3.778590   1.063688   2.199642
     8  H    3.379876   3.734662   4.280745   1.060166   2.199177
     9  Cl   3.722943   3.862962   4.524741   2.457509   3.053909
    10  Cl   3.722611   3.866264   4.522750   2.455547   3.050520
                    6          7          8          9         10
     6  H    0.000000
     7  H    3.107805   0.000000
     8  H    2.479467   1.829071   0.000000
     9  Cl   3.477003   2.628289   2.562722   0.000000
    10  Cl   3.469603   2.628122   2.563357   4.846390   0.000000
 Symmetry turned off by external request.
 Stoichiometry    C3H5Cl2(1-)
 Framework group  C1[X(C3H5Cl2)]
 Deg. of freedom    24
 Full point group                 C1      NOp   1
 Rotational constants (GHZ):           3.9177197           1.2006421           0.9546167
 Standard basis: 3-21G (6D, 7F)
    63 basis functions,   114 primitive gaussians,    63 cartesian basis functions
    29 alpha electrons       29 beta electrons
       nuclear repulsion energy       232.8099203165 Hartrees.
 NAtoms=   10 NActive=   10 NUniq=   10 SFac= 1.00D+00 NAtFMM=   60 NAOKFM=F Big=F
 Integral buffers will be    131072 words long.
 Raffenetti 1 integral format.
 Two-electron integral symmetry is turned off.
 ------------------------------------------------------------------------------
 Polarizable Continuum Model (PCM)
 =================================
 Model                : PCM.
 Atomic radii         : SMD-Coulomb.
 Polarization charges : Total charges.
 Charge compensation  : None.
 Solution method      : On-the-fly selection.
 Cavity type          : VdW (van der Waals Surface) (Alpha=1.000).
 Cavity algorithm     : GePol (No added spheres)
                        Default sphere list used, NSphG=   10.
                        Lebedev-Laikov grids with approx.  5.0 points / Ang**2.
                        Smoothing algorithm: York/Karplus (Gamma=1.0000).
                        Polarization charges: spherical gaussians, with
                                              point-specific exponents (IZeta= 3).
                        Self-potential: point-specific (ISelfS= 7).
                        Self-field    : sphere-specific E.n sum rule (ISelfD= 2).
 1st derivatives      : Analytical E(r).r(x)/FMM algorithm (CHGder, D1EAlg=3).
                        Cavity 1st derivative terms included.
 Solvent              : DiMethylSulfoxide, Eps=  46.826000 Eps(inf)=   2.007889
 ------------------------------------------------------------------------------
 Spheres list:
 ISph  on   Nord     Re0    Alpha      Xe            Ye            Ze
    1   C      1    1.8500  1.000     -0.293003     -0.888285      0.067372
    2   H      2    1.2000  1.000      0.602061     -1.481430      0.024640
    3   H      3    1.2000  1.000     -1.220605     -1.420594      0.156171
    4   C      4    1.8500  1.000      0.995672      1.168843     -0.108501
    5   C      5    1.8500  1.000     -0.258092      0.429672      0.013292
    6   H      6    1.2000  1.000     -1.155408      1.014630      0.056221
    7   H      7    1.2000  1.000      1.923601      0.651277     -0.158560
    8   H      8    1.2000  1.000      0.997128      2.228305     -0.147104
    9  Cl      9    2.3800  1.000      1.470762      1.536177      2.274502
   10  Cl     10    2.3800  1.000      1.104272      1.354642     -2.554599
 ------------------------------------------------------------------------------
 ------------------------------------------------------------------------------
 Atomic radii for non-electrostatic terms: SMD-CDS.
 ------------------------------------------------------------------------------
 Nuclear repulsion after PCM non-electrostatic terms =      232.8094338715 Hartrees.
 One-electron integrals computed using PRISM.
 NBasis=    63 RedAO= T EigKep=  1.01D-02  NBF=    63
 NBsUse=    63 1.00D-06 EigRej= -1.00D+00 NBFU=    63
 Initial guess from the checkpoint file:  "AllylChlorideClTS-TS.chk"
 B after Tr=     0.024501    0.028040   -0.002226
         Rot=    1.000000    0.000141   -0.000087    0.000888 Ang=   0.10 deg.
 ExpMin= 1.67D-01 ExpMax= 1.38D+03 ExpMxC= 1.38D+03 IAcc=2 IRadAn=         4 AccDes= 0.00D+00
 Harris functional with IExCor=  205 and IRadAn=       4 diagonalized for initial guess.
 HarFok:  IExCor=  205 AccDes= 0.00D+00 IRadAn=         4 IDoV= 1 UseB2=F ITyADJ=14
 ICtDFT=  3500011 ScaDFX=  1.000000  1.000000  1.000000  1.000000
 FoFCou: FMM=F IPFlag=           0 FMFlag=      100000 FMFlg1=           0
         NFxFlg=           0 DoJE=T BraDBF=F KetDBF=T FulRan=T
         wScrn=  0.000000 ICntrl=       500 IOpCl=  0 I1Cent=   200000004 NGrid=           0
         NMat0=    1 NMatS0=      1 NMatT0=    0 NMatD0=    1 NMtDS0=    0 NMtDT0=    0
 Symmetry not used in FoFCou.
 Keep R1 ints in memory in canonical form, NReq=3543012.
 Requested convergence on RMS density matrix=1.00D-08 within 128 cycles.
 Requested convergence on MAX density matrix=1.00D-06.
 Requested convergence on             energy=1.00D-06.
 No special actions if energy rises.
 Inv3:  Mode=1 IEnd=     4583088.
 Iteration    1 A*A^-1 deviation from unit magnitude is 2.89D-15 for    219.
 Iteration    1 A*A^-1 deviation from orthogonality  is 1.63D-15 for    422     31.
 Iteration    1 A^-1*A deviation from unit magnitude is 2.89D-15 for    219.
 Iteration    1 A^-1*A deviation from orthogonality  is 2.41D-15 for    263    220.
 Error on total polarization charges =  0.01071
 SCF Done:  E(RHF) =  -1030.59896644     A.U. after   11 cycles
            NFock= 11  Conv=0.68D-08     -V/T= 2.0010
 SMD-CDS (non-electrostatic) energy       (kcal/mol) =      -0.31
 (included in total energy above)
 D1PCM: PCM CHGder 1st derivatives, ID1Alg=3 FixD1E=F DoIter=F DoCFld=F I1PDM=0.
 Calling FoFJK, ICntrl=      2127 FMM=F ISym2X=0 I1Cent= 0 IOpClX= 0 NMat=1 NMatS=1 NMatT=0.
 -------------------------------------------------------------------
 Center     Atomic                   Forces (Hartrees/Bohr)
 Number     Number              X              Y              Z
 -------------------------------------------------------------------
      1        6          -0.000047333   -0.000607261    0.000050512
      2        1          -0.000003345   -0.000004478    0.000007850
      3        1          -0.000008386    0.000007851    0.000031291
      4        6          -0.002220660   -0.002012286    0.000131396
      5        6           0.000374671    0.000872265   -0.000169407
      6        1          -0.000014696   -0.000008788    0.000019639
      7        1          -0.000043566   -0.000010168    0.000003402
      8        1          -0.000012422   -0.000006955   -0.000024916
      9       17           0.001506449    0.001150548    0.006792871
     10       17           0.000469288    0.000619271   -0.006842640
 -------------------------------------------------------------------
 Cartesian Forces:  Max     0.006842640 RMS     0.001892686

 GradGradGradGradGradGradGradGradGradGradGradGradGradGradGradGradGradGrad
 Berny optimization.
 FormGI is forming the generalized inverse of G from B-inverse, IUseBI=4.
 Internal  Forces:  Max     0.007051425 RMS     0.001606502
 Search for a saddle point.
 Step number   2 out of a maximum of   48
 All quantities printed in internal units (Hartrees-Bohrs-Radians)
 Swapping is turned off.
 Update second derivatives using D2CorX and points    1    2
 ITU=  0  0
     Eigenvalues ---   -0.01510   0.00282   0.02241   0.03631   0.03646
     Eigenvalues ---    0.04874   0.05464   0.05649   0.08238   0.08756
     Eigenvalues ---    0.11117   0.12211   0.12591   0.13891   0.15901
     Eigenvalues ---    0.16186   0.21342   0.35470   0.39666   0.40080
     Eigenvalues ---    0.40147   0.43296   0.44193   0.73464
 Eigenvectors required to have negative eigenvalues:
                          R7        R8        D8        D7        D5
   1                   -0.55780   0.55420  -0.27325  -0.26557   0.22987
                          D6        A11       A12       A9        A10
   1                    0.22218   0.19104  -0.18946   0.16116  -0.15945
 RFO step:  Lambda0=8.821412311D-07 Lambda=-1.74689428D-03.
 Linear search not attempted -- option 19 set.
 Iteration  1 RMS(Cart)=  0.03038197 RMS(Int)=  0.00020690
 Iteration  2 RMS(Cart)=  0.00044736 RMS(Int)=  0.00000688
 Iteration  3 RMS(Cart)=  0.00000012 RMS(Int)=  0.00000688
 Variable       Old X    -DE/DX   Delta X   Delta X   Delta X     New X
                                 (Linear)    (Quad)   (Total)
    R1        2.03072   0.00001   0.00000  -0.00023  -0.00023   2.03048
    R2        2.02799  -0.00000   0.00000  -0.00033  -0.00033   2.02766
    R3        2.49355   0.00063   0.00000   0.00394   0.00394   2.49748
    R4        2.75999  -0.00041   0.00000  -0.01578  -0.01578   2.74421
    R5        2.01008  -0.00004   0.00000   0.00133   0.00133   2.01141
    R6        2.00342  -0.00000   0.00000   0.00150   0.00150   2.00492
    R7        4.64402   0.00705   0.00000   0.11880   0.11880   4.76282
    R8        4.64031   0.00688   0.00000   0.12662   0.12662   4.76693
    R9        2.02580   0.00000   0.00000  -0.00055  -0.00055   2.02525
    A1        2.03695  -0.00000   0.00000   0.00054   0.00054   2.03748
    A2        2.12662  -0.00001   0.00000  -0.00086  -0.00086   2.12576
    A3        2.11962   0.00001   0.00000   0.00032   0.00032   2.11995
    A4        2.10196  -0.00002   0.00000   0.00155   0.00154   2.10350
    A5        2.10596  -0.00003   0.00000   0.00285   0.00284   2.10880
    A6        1.73224   0.00022   0.00000   0.01719   0.01718   1.74942
    A7        1.73081   0.00026   0.00000   0.01481   0.01481   1.74561
    A8        2.07526   0.00005   0.00000  -0.00439  -0.00439   2.07088
    A9        1.52049  -0.00010   0.00000  -0.00524  -0.00526   1.51523
   A10        1.52213  -0.00011   0.00000  -0.00794  -0.00796   1.51417
   A11        1.45621  -0.00011   0.00000  -0.00810  -0.00812   1.44809
   A12        1.45861  -0.00015   0.00000  -0.01213  -0.01214   1.44647
   A13        2.13132  -0.00003   0.00000  -0.00746  -0.00746   2.12385
   A14        2.11909  -0.00001   0.00000   0.00006   0.00006   2.11914
   A15        2.03278   0.00005   0.00000   0.00741   0.00741   2.04019
   A16        3.46304   0.00048   0.00000   0.03200   0.03199   3.49504
   A17        3.06732  -0.00003   0.00000  -0.00409  -0.00409   3.06323
    D1        0.00046  -0.00002   0.00000  -0.00093  -0.00093  -0.00046
    D2        3.14128   0.00001   0.00000   0.00072   0.00072  -3.14119
    D3       -3.14079  -0.00004   0.00000  -0.00160  -0.00160   3.14080
    D4        0.00003  -0.00001   0.00000   0.00005   0.00005   0.00007
    D5        0.00164   0.00002   0.00000   0.00464   0.00465   0.00629
    D6       -3.13921  -0.00001   0.00000   0.00307   0.00307  -3.13613
    D7       -3.13842   0.00002   0.00000  -0.00071  -0.00071  -3.13914
    D8        0.00391  -0.00002   0.00000  -0.00228  -0.00229   0.00162
    D9       -1.60575   0.00001   0.00000   0.00030   0.00030  -1.60545
   D10        1.53658  -0.00002   0.00000  -0.00127  -0.00127   1.53531
   D11        1.61011   0.00004   0.00000   0.00439   0.00440   1.61451
   D12       -1.53073   0.00001   0.00000   0.00282   0.00282  -1.52791
         Item               Value     Threshold  Converged?
 Maximum Force            0.007051     0.000450     NO 
 RMS     Force            0.001607     0.000300     NO 
 Maximum Displacement     0.114255     0.001800     NO 
 RMS     Displacement     0.030507     0.001200     NO 
 Predicted change in Energy=-9.013293D-04
 GradGradGradGradGradGradGradGradGradGradGradGradGradGradGradGradGradGrad

                          Input orientation:                          
 ---------------------------------------------------------------------
 Center     Atomic      Atomic             Coordinates (Angstroms)
 Number     Number       Type             X           Y           Z
 ---------------------------------------------------------------------
      1          6           0       -0.295957   -0.891217    0.068207
      2          1           0        0.602005   -1.479822    0.026636
      3          1           0       -1.221059   -1.427515    0.157011
      4          6           0        0.982809    1.159685   -0.105899
      5          6           0       -0.266425    0.428923    0.013299
      6          1           0       -1.165885    1.010091    0.055646
      7          1           0        1.910258    0.639988   -0.157711
      8          1           0        0.990748    2.219834   -0.146613
      9         17           0        1.502605    1.557983    2.327918
     10         17           0        1.127288    1.375290   -2.615061
 ---------------------------------------------------------------------
                    Distance matrix (angstroms):
                    1          2          3          4          5
     1  C    0.000000
     2  H    1.074485   0.000000
     3  H    1.072994   1.828468   0.000000
     4  C    2.423170   2.670126   3.408777   0.000000
     5  C    1.321612   2.097059   2.092449   1.452173   0.000000
     6  H    2.090910   3.053840   2.440336   2.159945   1.071716
     7  H    2.694998   2.497820   3.765470   1.064393   2.193569
     8  H    3.373484   3.724056   4.276381   1.060960   2.193950
     9  Cl   3.786779   3.916023   4.587415   2.520376   3.124373
    10  Cl   3.789803   3.925067   4.588555   2.522549   3.121910
                    6          7          8          9         10
     6  H    0.000000
     7  H    3.105665   0.000000
     8  H    2.481018   1.827987   0.000000
     9  Cl   3.547428   2.680904   2.612154   0.000000
    10  Cl   3.539023   2.681843   2.612495   4.960572   0.000000
 Symmetry turned off by external request.
 Stoichiometry    C3H5Cl2(1-)
 Framework group  C1[X(C3H5Cl2)]
 Deg. of freedom    24
 Full point group                 C1      NOp   1
 Rotational constants (GHZ):           3.8167262           1.1469686           0.9150794
 Standard basis: 3-21G (6D, 7F)
    63 basis functions,   114 primitive gaussians,    63 cartesian basis functions
    29 alpha electrons       29 beta electrons
       nuclear repulsion energy       229.2627472599 Hartrees.
 NAtoms=   10 NActive=   10 NUniq=   10 SFac= 1.00D+00 NAtFMM=   60 NAOKFM=F Big=F
 Integral buffers will be    131072 words long.
 Raffenetti 1 integral format.
 Two-electron integral symmetry is turned off.
 ------------------------------------------------------------------------------
 Polarizable Continuum Model (PCM)
 =================================
 Model                : PCM.
 Atomic radii         : SMD-Coulomb.
 Polarization charges : Total charges.
 Charge compensation  : None.
 Solution method      : On-the-fly selection.
 Cavity type          : VdW (van der Waals Surface) (Alpha=1.000).
 Cavity algorithm     : GePol (No added spheres)
                        Default sphere list used, NSphG=   10.
                        Lebedev-Laikov grids with approx.  5.0 points / Ang**2.
                        Smoothing algorithm: York/Karplus (Gamma=1.0000).
                        Polarization charges: spherical gaussians, with
                                              point-specific exponents (IZeta= 3).
                        Self-potential: point-specific (ISelfS= 7).
                        Self-field    : sphere-specific E.n sum rule (ISelfD= 2).
 1st derivatives      : Analytical E(r).r(x)/FMM algorithm (CHGder, D1EAlg=3).
                        Cavity 1st derivative terms included.
 Solvent              : DiMethylSulfoxide, Eps=  46.826000 Eps(inf)=   2.007889
 ------------------------------------------------------------------------------
 Spheres list:
 ISph  on   Nord     Re0    Alpha      Xe            Ye            Ze
    1   C      1    1.8500  1.000     -0.295957     -0.891217      0.068207
    2   H      2    1.2000  1.000      0.602005     -1.479822      0.026636
    3   H      3    1.2000  1.000     -1.221059     -1.427515      0.157011
    4   C      4    1.8500  1.000      0.982809      1.159685     -0.105899
    5   C      5    1.8500  1.000     -0.266425      0.428923      0.013299
    6   H      6    1.2000  1.000     -1.165885      1.010091      0.055646
    7   H      7    1.2000  1.000      1.910258      0.639988     -0.157711
    8   H      8    1.2000  1.000      0.990748      2.219834     -0.146613
    9  Cl      9    2.3800  1.000      1.502605      1.557983      2.327918
   10  Cl     10    2.3800  1.000      1.127288      1.375290     -2.615061
 ------------------------------------------------------------------------------
 ------------------------------------------------------------------------------
 Atomic radii for non-electrostatic terms: SMD-CDS.
 ------------------------------------------------------------------------------
 Nuclear repulsion after PCM non-electrostatic terms =      229.2622646051 Hartrees.
 One-electron integrals computed using PRISM.
 NBasis=    63 RedAO= T EigKep=  1.01D-02  NBF=    63
 NBsUse=    63 1.00D-06 EigRej= -1.00D+00 NBFU=    63
 Initial guess from the checkpoint file:  "AllylChlorideClTS-TS.chk"
 B after Tr=     0.021589    0.023422   -0.003641
         Rot=    1.000000   -0.000153   -0.000025    0.000976 Ang=  -0.11 deg.
 ExpMin= 1.67D-01 ExpMax= 1.38D+03 ExpMxC= 1.38D+03 IAcc=2 IRadAn=         4 AccDes= 0.00D+00
 Harris functional with IExCor=  205 and IRadAn=       4 diagonalized for initial guess.
 HarFok:  IExCor=  205 AccDes= 0.00D+00 IRadAn=         4 IDoV= 1 UseB2=F ITyADJ=14
 ICtDFT=  3500011 ScaDFX=  1.000000  1.000000  1.000000  1.000000
 FoFCou: FMM=F IPFlag=           0 FMFlag=      100000 FMFlg1=           0
         NFxFlg=           0 DoJE=T BraDBF=F KetDBF=T FulRan=T
         wScrn=  0.000000 ICntrl=       500 IOpCl=  0 I1Cent=   200000004 NGrid=           0
         NMat0=    1 NMatS0=      1 NMatT0=    0 NMatD0=    1 NMtDS0=    0 NMtDT0=    0
 Symmetry not used in FoFCou.
 Keep R1 ints in memory in canonical form, NReq=3544212.
 Requested convergence on RMS density matrix=1.00D-08 within 128 cycles.
 Requested convergence on MAX density matrix=1.00D-06.
 Requested convergence on             energy=1.00D-06.
 No special actions if energy rises.
 Inv3:  Mode=1 IEnd=     4717548.
 Iteration    1 A*A^-1 deviation from unit magnitude is 3.44D-15 for    917.
 Iteration    1 A*A^-1 deviation from orthogonality  is 2.11D-15 for    458    204.
 Iteration    1 A^-1*A deviation from unit magnitude is 2.78D-15 for    917.
 Iteration    1 A^-1*A deviation from orthogonality  is 7.31D-11 for   1116    390.
 Error on total polarization charges =  0.01064
 SCF Done:  E(RHF) =  -1030.60013022     A.U. after   11 cycles
            NFock= 11  Conv=0.45D-08     -V/T= 2.0011
 SMD-CDS (non-electrostatic) energy       (kcal/mol) =      -0.30
 (included in total energy above)
 D1PCM: PCM CHGder 1st derivatives, ID1Alg=3 FixD1E=F DoIter=F DoCFld=F I1PDM=0.
 Calling FoFJK, ICntrl=      2127 FMM=F ISym2X=0 I1Cent= 0 IOpClX= 0 NMat=1 NMatS=1 NMatT=0.
 -------------------------------------------------------------------
 Center     Atomic                   Forces (Hartrees/Bohr)
 Number     Number              X              Y              Z
 -------------------------------------------------------------------
      1        6          -0.000051969   -0.000555913    0.000171486
      2        1          -0.000013411   -0.000012769    0.000007845
      3        1          -0.000028214    0.000002516   -0.000014478
      4        6          -0.000940663   -0.000742115   -0.000058805
      5        6           0.000182113    0.000566647    0.000106379
      6        1          -0.000000423    0.000030891   -0.000013180
      7        1          -0.000051698    0.000009741    0.000062360
      8        1          -0.000000318    0.000012208    0.000025292
      9       17           0.000591791    0.000411102    0.002311003
     10       17           0.000312792    0.000277692   -0.002597901
 -------------------------------------------------------------------
 Cartesian Forces:  Max     0.002597901 RMS     0.000705685

 GradGradGradGradGradGradGradGradGradGradGradGradGradGradGradGradGradGrad
 Berny optimization.
 FormGI is forming the generalized inverse of G from B-inverse, IUseBI=4.
 Internal  Forces:  Max     0.002617455 RMS     0.000595128
 Search for a saddle point.
 Step number   3 out of a maximum of   48
 All quantities printed in internal units (Hartrees-Bohrs-Radians)
 Swapping is turned off.
 Update second derivatives using D2CorX and points    1    2    3
 ITU=  0  0  0
     Eigenvalues ---   -0.01509   0.00282   0.02241   0.03281   0.03634
     Eigenvalues ---    0.03646   0.05463   0.05649   0.07998   0.08755
     Eigenvalues ---    0.11102   0.12200   0.12591   0.13890   0.15898
     Eigenvalues ---    0.16170   0.21334   0.35464   0.39666   0.40080
     Eigenvalues ---    0.40147   0.43295   0.44193   0.73415
 Eigenvectors required to have negative eigenvalues:
                          R7        R8        D8        D7        D5
   1                   -0.55675   0.55532  -0.27354  -0.26584   0.23012
                          D6        A11       A12       A9        A10
   1                    0.22242   0.19065  -0.18916   0.16077  -0.15918
 RFO step:  Lambda0=2.572729880D-08 Lambda=-3.72578259D-04.
 Linear search not attempted -- option 19 set.
 Iteration  1 RMS(Cart)=  0.01850202 RMS(Int)=  0.00008820
 Iteration  2 RMS(Cart)=  0.00018856 RMS(Int)=  0.00000196
 Iteration  3 RMS(Cart)=  0.00000002 RMS(Int)=  0.00000196
 Variable       Old X    -DE/DX   Delta X   Delta X   Delta X     New X
                                 (Linear)    (Quad)   (Total)
    R1        2.03048   0.00001   0.00000  -0.00014  -0.00014   2.03035
    R2        2.02766   0.00001   0.00000  -0.00014  -0.00014   2.02752
    R3        2.49748   0.00059   0.00000   0.00307   0.00307   2.50055
    R4        2.74421  -0.00009   0.00000  -0.00909  -0.00909   2.73512
    R5        2.01141  -0.00006   0.00000   0.00046   0.00046   2.01187
    R6        2.00492   0.00002   0.00000   0.00090   0.00090   2.00583
    R7        4.76282   0.00243   0.00000   0.06983   0.06983   4.83265
    R8        4.76693   0.00262   0.00000   0.07105   0.07105   4.83798
    R9        2.02525   0.00001   0.00000  -0.00024  -0.00024   2.02501
    A1        2.03748  -0.00001   0.00000   0.00040   0.00040   2.03789
    A2        2.12576   0.00001   0.00000  -0.00041  -0.00041   2.12535
    A3        2.11995   0.00000   0.00000   0.00000   0.00000   2.11995
    A4        2.10350  -0.00002   0.00000   0.00092   0.00092   2.10443
    A5        2.10880  -0.00002   0.00000   0.00129   0.00129   2.11009
    A6        1.74942  -0.00003   0.00000   0.00977   0.00977   1.75920
    A7        1.74561   0.00038   0.00000   0.01245   0.01245   1.75806
    A8        2.07088   0.00004   0.00000  -0.00221  -0.00221   2.06867
    A9        1.51523  -0.00008   0.00000  -0.00633  -0.00633   1.50890
   A10        1.51417  -0.00012   0.00000  -0.00506  -0.00507   1.50911
   A11        1.44809  -0.00002   0.00000  -0.00569  -0.00569   1.44240
   A12        1.44647  -0.00013   0.00000  -0.00600  -0.00601   1.44046
   A13        2.12385   0.00008   0.00000  -0.00374  -0.00374   2.12012
   A14        2.11914  -0.00003   0.00000  -0.00018  -0.00018   2.11897
   A15        2.04019  -0.00005   0.00000   0.00391   0.00391   2.04410
   A16        3.49504   0.00035   0.00000   0.02222   0.02222   3.51726
   A17        3.06323   0.00003   0.00000  -0.00022  -0.00022   3.06301
    D1       -0.00046  -0.00002   0.00000  -0.00034  -0.00034  -0.00081
    D2       -3.14119  -0.00001   0.00000  -0.00007  -0.00007  -3.14126
    D3        3.14080   0.00003   0.00000   0.00049   0.00049   3.14129
    D4        0.00007   0.00004   0.00000   0.00077   0.00077   0.00084
    D5        0.00629  -0.00006   0.00000   0.00249   0.00249   0.00878
    D6       -3.13613  -0.00008   0.00000   0.00222   0.00222  -3.13391
    D7       -3.13914   0.00009   0.00000   0.00463   0.00463  -3.13451
    D8        0.00162   0.00008   0.00000   0.00436   0.00436   0.00599
    D9       -1.60545   0.00005   0.00000   0.00392   0.00392  -1.60153
   D10        1.53531   0.00004   0.00000   0.00365   0.00365   1.53897
   D11        1.61451   0.00002   0.00000   0.00414   0.00414   1.61865
   D12       -1.52791   0.00001   0.00000   0.00387   0.00387  -1.52404
         Item               Value     Threshold  Converged?
 Maximum Force            0.002617     0.000450     NO 
 RMS     Force            0.000595     0.000300     NO 
 Maximum Displacement     0.065646     0.001800     NO 
 RMS     Displacement     0.018571     0.001200     NO 
 Predicted change in Energy=-1.883335D-04
 GradGradGradGradGradGradGradGradGradGradGradGradGradGradGradGradGradGrad

                          Input orientation:                          
 ---------------------------------------------------------------------
 Center     Atomic      Atomic             Coordinates (Angstroms)
 Number     Number       Type             X           Y           Z
 ---------------------------------------------------------------------
      1          6           0       -0.298258   -0.893729    0.070792
      2          1           0        0.601465   -1.479640    0.031153
      3          1           0       -1.221983   -1.432270    0.159450
      4          6           0        0.973847    1.154690   -0.106450
      5          6           0       -0.272156    0.427974    0.012779
      6          1           0       -1.173181    1.006622    0.053129
      7          1           0        1.901323    0.634537   -0.158184
      8          1           0        0.984636    2.215343   -0.145809
      9         17           0        1.524707    1.568176    2.356374
     10         17           0        1.145989    1.391537   -2.649799
 ---------------------------------------------------------------------
                    Distance matrix (angstroms):
                    1          2          3          4          5
     1  C    0.000000
     2  H    1.074413   0.000000
     3  H    1.072919   1.828569   0.000000
     4  C    2.417785   2.664075   3.403635   0.000000
     5  C    1.323234   2.098224   2.093846   1.447361   0.000000
     6  H    2.092161   3.054726   2.441696   2.158035   1.071591
     7  H    2.688156   2.489021   3.758673   1.064635   2.189956
     8  H    3.370321   3.719010   4.274041   1.061438   2.190745
     9  Cl   3.822049   3.943122   4.623143   2.557326   3.165630
    10  Cl   3.835349   3.965812   4.633902   2.560147   3.166845
                    6          7          8          9         10
     6  H    0.000000
     7  H    3.104138   0.000000
     8  H    2.481281   1.827407   0.000000
     9  Cl   3.591501   2.708601   2.640345   0.000000
    10  Cl   3.582252   2.711406   2.640958   5.023584   0.000000
 Symmetry turned off by external request.
 Stoichiometry    C3H5Cl2(1-)
 Framework group  C1[X(C3H5Cl2)]
 Deg. of freedom    24
 Full point group                 C1      NOp   1
 Rotational constants (GHZ):           3.7467233           1.1188029           0.8934276
 Standard basis: 3-21G (6D, 7F)
    63 basis functions,   114 primitive gaussians,    63 cartesian basis functions
    29 alpha electrons       29 beta electrons
       nuclear repulsion energy       227.2554272693 Hartrees.
 NAtoms=   10 NActive=   10 NUniq=   10 SFac= 1.00D+00 NAtFMM=   60 NAOKFM=F Big=F
 Integral buffers will be    131072 words long.
 Raffenetti 1 integral format.
 Two-electron integral symmetry is turned off.
 ------------------------------------------------------------------------------
 Polarizable Continuum Model (PCM)
 =================================
 Model                : PCM.
 Atomic radii         : SMD-Coulomb.
 Polarization charges : Total charges.
 Charge compensation  : None.
 Solution method      : On-the-fly selection.
 Cavity type          : VdW (van der Waals Surface) (Alpha=1.000).
 Cavity algorithm     : GePol (No added spheres)
                        Default sphere list used, NSphG=   10.
                        Lebedev-Laikov grids with approx.  5.0 points / Ang**2.
                        Smoothing algorithm: York/Karplus (Gamma=1.0000).
                        Polarization charges: spherical gaussians, with
                                              point-specific exponents (IZeta= 3).
                        Self-potential: point-specific (ISelfS= 7).
                        Self-field    : sphere-specific E.n sum rule (ISelfD= 2).
 1st derivatives      : Analytical E(r).r(x)/FMM algorithm (CHGder, D1EAlg=3).
                        Cavity 1st derivative terms included.
 Solvent              : DiMethylSulfoxide, Eps=  46.826000 Eps(inf)=   2.007889
 ------------------------------------------------------------------------------
 Spheres list:
 ISph  on   Nord     Re0    Alpha      Xe            Ye            Ze
    1   C      1    1.8500  1.000     -0.298258     -0.893729      0.070792
    2   H      2    1.2000  1.000      0.601465     -1.479640      0.031153
    3   H      3    1.2000  1.000     -1.221983     -1.432270      0.159450
    4   C      4    1.8500  1.000      0.973847      1.154690     -0.106450
    5   C      5    1.8500  1.000     -0.272156      0.427974      0.012779
    6   H      6    1.2000  1.000     -1.173181      1.006622      0.053129
    7   H      7    1.2000  1.000      1.901323      0.634537     -0.158184
    8   H      8    1.2000  1.000      0.984636      2.215343     -0.145809
    9  Cl      9    2.3800  1.000      1.524707      1.568176      2.356374
   10  Cl     10    2.3800  1.000      1.145989      1.391537     -2.649799
 ------------------------------------------------------------------------------
 ------------------------------------------------------------------------------
 Atomic radii for non-electrostatic terms: SMD-CDS.
 ------------------------------------------------------------------------------
 Nuclear repulsion after PCM non-electrostatic terms =      227.2549487572 Hartrees.
 One-electron integrals computed using PRISM.
 NBasis=    63 RedAO= T EigKep=  1.01D-02  NBF=    63
 NBsUse=    63 1.00D-06 EigRej= -1.00D+00 NBFU=    63
 Initial guess from the checkpoint file:  "AllylChlorideClTS-TS.chk"
 B after Tr=     0.015303    0.015550   -0.004994
         Rot=    0.999999   -0.000504    0.000024    0.000965 Ang=  -0.12 deg.
 ExpMin= 1.67D-01 ExpMax= 1.38D+03 ExpMxC= 1.38D+03 IAcc=2 IRadAn=         4 AccDes= 0.00D+00
 Harris functional with IExCor=  205 and IRadAn=       4 diagonalized for initial guess.
 HarFok:  IExCor=  205 AccDes= 0.00D+00 IRadAn=         4 IDoV= 1 UseB2=F ITyADJ=14
 ICtDFT=  3500011 ScaDFX=  1.000000  1.000000  1.000000  1.000000
 FoFCou: FMM=F IPFlag=           0 FMFlag=      100000 FMFlg1=           0
         NFxFlg=           0 DoJE=T BraDBF=F KetDBF=T FulRan=T
         wScrn=  0.000000 ICntrl=       500 IOpCl=  0 I1Cent=   200000004 NGrid=           0
         NMat0=    1 NMatS0=      1 NMatT0=    0 NMatD0=    1 NMtDS0=    0 NMtDT0=    0
 Symmetry not used in FoFCou.
 Keep R1 ints in memory in canonical form, NReq=3544665.
 Requested convergence on RMS density matrix=1.00D-08 within 128 cycles.
 Requested convergence on MAX density matrix=1.00D-06.
 Requested convergence on             energy=1.00D-06.
 No special actions if energy rises.
 Inv3:  Mode=1 IEnd=     4770363.
 Iteration    1 A*A^-1 deviation from unit magnitude is 2.44D-15 for     60.
 Iteration    1 A*A^-1 deviation from orthogonality  is 1.50D-15 for    431     32.
 Iteration    1 A^-1*A deviation from unit magnitude is 2.22D-15 for    232.
 Iteration    1 A^-1*A deviation from orthogonality  is 9.86D-11 for    420    394.
 Error on total polarization charges =  0.01058
 SCF Done:  E(RHF) =  -1030.60035564     A.U. after   11 cycles
            NFock= 11  Conv=0.37D-08     -V/T= 2.0011
 SMD-CDS (non-electrostatic) energy       (kcal/mol) =      -0.30
 (included in total energy above)
 D1PCM: PCM CHGder 1st derivatives, ID1Alg=3 FixD1E=F DoIter=F DoCFld=F I1PDM=0.
 Calling FoFJK, ICntrl=      2127 FMM=F ISym2X=0 I1Cent= 0 IOpClX= 0 NMat=1 NMatS=1 NMatT=0.
 -------------------------------------------------------------------
 Center     Atomic                   Forces (Hartrees/Bohr)
 Number     Number              X              Y              Z
 -------------------------------------------------------------------
      1        6          -0.000034246   -0.000176427   -0.000040319
      2        1          -0.000010322   -0.000003125    0.000026766
      3        1          -0.000018714    0.000010487    0.000044927
      4        6          -0.000276424   -0.000127067    0.000095163
      5        6           0.000015199    0.000141058    0.000065273
      6        1           0.000005865    0.000020944    0.000001853
      7        1           0.000017476   -0.000016986    0.000012983
      8        1           0.000012180   -0.000007032   -0.000063086
      9       17           0.000169200    0.000144048    0.000485390
     10       17           0.000119786    0.000014099   -0.000628950
 -------------------------------------------------------------------
 Cartesian Forces:  Max     0.000628950 RMS     0.000169682

 GradGradGradGradGradGradGradGradGradGradGradGradGradGradGradGradGradGrad
 Berny optimization.
 FormGI is forming the generalized inverse of G from B-inverse, IUseBI=4.
 Internal  Forces:  Max     0.000622901 RMS     0.000142401
 Search for a saddle point.
 Step number   4 out of a maximum of   48
 All quantities printed in internal units (Hartrees-Bohrs-Radians)
 Swapping is turned off.
 Update second derivatives using D2CorX and points    1    2    3    4
 ITU=  0  0  0  0
     Eigenvalues ---   -0.01512   0.00280   0.02239   0.02528   0.03635
     Eigenvalues ---    0.03647   0.05463   0.05649   0.07983   0.08755
     Eigenvalues ---    0.11095   0.12191   0.12590   0.13888   0.15895
     Eigenvalues ---    0.16172   0.21329   0.35455   0.39666   0.40080
     Eigenvalues ---    0.40147   0.43295   0.44193   0.73381
 Eigenvectors required to have negative eigenvalues:
                          R8        R7        D8        D7        D5
   1                    0.56372  -0.54854  -0.27401  -0.26647   0.22953
                          D6        A11       A12       A10       A9
   1                    0.22199   0.18979  -0.18956  -0.15977   0.15972
 RFO step:  Lambda0=2.654891926D-07 Lambda=-3.02700986D-05.
 Linear search not attempted -- option 19 set.
 Iteration  1 RMS(Cart)=  0.00882767 RMS(Int)=  0.00002458
 Iteration  2 RMS(Cart)=  0.00003745 RMS(Int)=  0.00000079
 Iteration  3 RMS(Cart)=  0.00000000 RMS(Int)=  0.00000079
 Variable       Old X    -DE/DX   Delta X   Delta X   Delta X     New X
                                 (Linear)    (Quad)   (Total)
    R1        2.03035   0.00000   0.00000  -0.00003  -0.00003   2.03031
    R2        2.02752   0.00001   0.00000  -0.00004  -0.00004   2.02749
    R3        2.50055   0.00019   0.00000   0.00106   0.00106   2.50161
    R4        2.73512   0.00003   0.00000  -0.00277  -0.00277   2.73235
    R5        2.01187   0.00002   0.00000   0.00017   0.00017   2.01204
    R6        2.00583   0.00000   0.00000   0.00029   0.00029   2.00612
    R7        4.83265   0.00054   0.00000   0.02465   0.02465   4.85730
    R8        4.83798   0.00062   0.00000   0.01975   0.01975   4.85772
    R9        2.02501   0.00000   0.00000  -0.00007  -0.00007   2.02494
    A1        2.03789  -0.00000   0.00000   0.00016   0.00016   2.03804
    A2        2.12535  -0.00000   0.00000  -0.00018  -0.00018   2.12517
    A3        2.11995   0.00000   0.00000   0.00002   0.00002   2.11997
    A4        2.10443  -0.00001   0.00000   0.00029   0.00028   2.10471
    A5        2.11009   0.00000   0.00000   0.00040   0.00039   2.11048
    A6        1.75920   0.00007   0.00000   0.00217   0.00217   1.76137
    A7        1.75806   0.00009   0.00000   0.00636   0.00636   1.76442
    A8        2.06867   0.00001   0.00000  -0.00068  -0.00068   2.06799
    A9        1.50890  -0.00004   0.00000  -0.00315  -0.00315   1.50574
   A10        1.50911  -0.00006   0.00000  -0.00216  -0.00216   1.50694
   A11        1.44240  -0.00002   0.00000  -0.00271  -0.00271   1.43969
   A12        1.44046  -0.00003   0.00000  -0.00080  -0.00080   1.43966
   A13        2.12012   0.00003   0.00000  -0.00117  -0.00117   2.11895
   A14        2.11897  -0.00001   0.00000  -0.00007  -0.00007   2.11890
   A15        2.04410  -0.00002   0.00000   0.00123   0.00123   2.04533
   A16        3.51726   0.00016   0.00000   0.00853   0.00853   3.52579
   A17        3.06301   0.00003   0.00000   0.00105   0.00105   3.06405
    D1       -0.00081   0.00000   0.00000  -0.00043  -0.00043  -0.00124
    D2       -3.14126  -0.00001   0.00000  -0.00063  -0.00063   3.14130
    D3        3.14129  -0.00000   0.00000  -0.00019  -0.00019   3.14110
    D4        0.00084  -0.00002   0.00000  -0.00039  -0.00039   0.00045
    D5        0.00878  -0.00003   0.00000  -0.01211  -0.01211  -0.00333
    D6       -3.13391  -0.00001   0.00000  -0.01192  -0.01192   3.13736
    D7       -3.13451  -0.00003   0.00000  -0.00791  -0.00791   3.14077
    D8        0.00599  -0.00002   0.00000  -0.00772  -0.00772  -0.00173
    D9       -1.60153  -0.00002   0.00000  -0.00975  -0.00975  -1.61128
   D10        1.53897  -0.00000   0.00000  -0.00956  -0.00956   1.52941
   D11        1.61865  -0.00005   0.00000  -0.01080  -0.01080   1.60785
   D12       -1.52404  -0.00003   0.00000  -0.01060  -0.01060  -1.53464
         Item               Value     Threshold  Converged?
 Maximum Force            0.000623     0.000450     NO 
 RMS     Force            0.000142     0.000300     YES
 Maximum Displacement     0.022835     0.001800     NO 
 RMS     Displacement     0.008840     0.001200     NO 
 Predicted change in Energy=-1.503204D-05
 GradGradGradGradGradGradGradGradGradGradGradGradGradGradGradGradGradGrad

                          Input orientation:                          
 ---------------------------------------------------------------------
 Center     Atomic      Atomic             Coordinates (Angstroms)
 Number     Number       Type             X           Y           Z
 ---------------------------------------------------------------------
      1          6           0       -0.299545   -0.894848    0.067415
      2          1           0        0.600190   -1.480054    0.019069
      3          1           0       -1.222516   -1.434192    0.158772
      4          6           0        0.970410    1.153313   -0.106348
      5          6           0       -0.274221    0.427710    0.016178
      6          1           0       -1.175216    1.005714    0.064618
      7          1           0        1.898234    0.633308   -0.155079
      8          1           0        0.981698    2.214048   -0.147505
      9         17           0        1.530886    1.579567    2.365692
     10         17           0        1.156468    1.388675   -2.659377
 ---------------------------------------------------------------------
                    Distance matrix (angstroms):
                    1          2          3          4          5
     1  C    0.000000
     2  H    1.074396   0.000000
     3  H    1.072899   1.828627   0.000000
     4  C    2.416183   2.662220   3.402116   0.000000
     5  C    1.323792   2.098611   2.094344   1.445897   0.000000
     6  H    2.092592   3.055026   2.442180   2.157481   1.071554
     7  H    2.686075   2.486271   3.756612   1.064724   2.188872
     8  H    3.369422   3.717484   4.273408   1.061593   2.189777
     9  Cl   3.841261   3.966626   4.640524   2.570371   3.178900
    10  Cl   3.843155   3.963979   4.644363   2.570597   3.182595
                    6          7          8          9         10
     6  H    0.000000
     7  H    3.103715   0.000000
     8  H    2.481400   1.827248   0.000000
     9  Cl   3.598227   2.717469   2.649592   0.000000
    10  Cl   3.606044   2.718879   2.649770   5.042613   0.000000
 Symmetry turned off by external request.
 Stoichiometry    C3H5Cl2(1-)
 Framework group  C1[X(C3H5Cl2)]
 Deg. of freedom    24
 Full point group                 C1      NOp   1
 Rotational constants (GHZ):           3.7206702           1.1104713           0.8867646
 Standard basis: 3-21G (6D, 7F)
    63 basis functions,   114 primitive gaussians,    63 cartesian basis functions
    29 alpha electrons       29 beta electrons
       nuclear repulsion energy       226.6199756731 Hartrees.
 NAtoms=   10 NActive=   10 NUniq=   10 SFac= 1.00D+00 NAtFMM=   60 NAOKFM=F Big=F
 Integral buffers will be    131072 words long.
 Raffenetti 1 integral format.
 Two-electron integral symmetry is turned off.
 ------------------------------------------------------------------------------
 Polarizable Continuum Model (PCM)
 =================================
 Model                : PCM.
 Atomic radii         : SMD-Coulomb.
 Polarization charges : Total charges.
 Charge compensation  : None.
 Solution method      : On-the-fly selection.
 Cavity type          : VdW (van der Waals Surface) (Alpha=1.000).
 Cavity algorithm     : GePol (No added spheres)
                        Default sphere list used, NSphG=   10.
                        Lebedev-Laikov grids with approx.  5.0 points / Ang**2.
                        Smoothing algorithm: York/Karplus (Gamma=1.0000).
                        Polarization charges: spherical gaussians, with
                                              point-specific exponents (IZeta= 3).
                        Self-potential: point-specific (ISelfS= 7).
                        Self-field    : sphere-specific E.n sum rule (ISelfD= 2).
 1st derivatives      : Analytical E(r).r(x)/FMM algorithm (CHGder, D1EAlg=3).
                        Cavity 1st derivative terms included.
 Solvent              : DiMethylSulfoxide, Eps=  46.826000 Eps(inf)=   2.007889
 ------------------------------------------------------------------------------
 Spheres list:
 ISph  on   Nord     Re0    Alpha      Xe            Ye            Ze
    1   C      1    1.8500  1.000     -0.299545     -0.894848      0.067415
    2   H      2    1.2000  1.000      0.600190     -1.480054      0.019069
    3   H      3    1.2000  1.000     -1.222516     -1.434192      0.158772
    4   C      4    1.8500  1.000      0.970410      1.153313     -0.106348
    5   C      5    1.8500  1.000     -0.274221      0.427710      0.016178
    6   H      6    1.2000  1.000     -1.175216      1.005714      0.064618
    7   H      7    1.2000  1.000      1.898234      0.633308     -0.155079
    8   H      8    1.2000  1.000      0.981698      2.214048     -0.147505
    9  Cl      9    2.3800  1.000      1.530886      1.579567      2.365692
   10  Cl     10    2.3800  1.000      1.156468      1.388675     -2.659377
 ------------------------------------------------------------------------------
 ------------------------------------------------------------------------------
 Atomic radii for non-electrostatic terms: SMD-CDS.
 ------------------------------------------------------------------------------
 Nuclear repulsion after PCM non-electrostatic terms =      226.6194988400 Hartrees.
 One-electron integrals computed using PRISM.
 NBasis=    63 RedAO= T EigKep=  1.01D-02  NBF=    63
 NBsUse=    63 1.00D-06 EigRej= -1.00D+00 NBFU=    63
 Initial guess from the checkpoint file:  "AllylChlorideClTS-TS.chk"
 B after Tr=     0.006115    0.005660    0.001815
         Rot=    0.999999    0.001086    0.000633    0.000375 Ang=   0.15 deg.
 ExpMin= 1.67D-01 ExpMax= 1.38D+03 ExpMxC= 1.38D+03 IAcc=2 IRadAn=         4 AccDes= 0.00D+00
 Harris functional with IExCor=  205 and IRadAn=       4 diagonalized for initial guess.
 HarFok:  IExCor=  205 AccDes= 0.00D+00 IRadAn=         4 IDoV= 1 UseB2=F ITyADJ=14
 ICtDFT=  3500011 ScaDFX=  1.000000  1.000000  1.000000  1.000000
 FoFCou: FMM=F IPFlag=           0 FMFlag=      100000 FMFlg1=           0
         NFxFlg=           0 DoJE=T BraDBF=F KetDBF=T FulRan=T
         wScrn=  0.000000 ICntrl=       500 IOpCl=  0 I1Cent=   200000004 NGrid=           0
         NMat0=    1 NMatS0=      1 NMatT0=    0 NMatD0=    1 NMtDS0=    0 NMtDT0=    0
 Symmetry not used in FoFCou.
 Keep R1 ints in memory in canonical form, NReq=3544889.
 Requested convergence on RMS density matrix=1.00D-08 within 128 cycles.
 Requested convergence on MAX density matrix=1.00D-06.
 Requested convergence on             energy=1.00D-06.
 No special actions if energy rises.
 Inv3:  Mode=1 IEnd=     4800675.
 Iteration    1 A*A^-1 deviation from unit magnitude is 3.33D-15 for    392.
 Iteration    1 A*A^-1 deviation from orthogonality  is 2.06D-15 for    395     36.
 Iteration    1 A^-1*A deviation from unit magnitude is 3.33D-15 for    392.
 Iteration    1 A^-1*A deviation from orthogonality  is 1.28D-10 for    440    395.
 Iteration    2 A*A^-1 deviation from unit magnitude is 2.66D-15 for    206.
 Iteration    2 A*A^-1 deviation from orthogonality  is 4.15D-15 for    447    218.
 Iteration    2 A^-1*A deviation from unit magnitude is 2.11D-15 for    238.
 Iteration    2 A^-1*A deviation from orthogonality  is 2.22D-15 for   1115    477.
 Error on total polarization charges =  0.01056
 SCF Done:  E(RHF) =  -1030.60037204     A.U. after   11 cycles
            NFock= 11  Conv=0.26D-08     -V/T= 2.0011
 SMD-CDS (non-electrostatic) energy       (kcal/mol) =      -0.30
 (included in total energy above)
 D1PCM: PCM CHGder 1st derivatives, ID1Alg=3 FixD1E=F DoIter=F DoCFld=F I1PDM=0.
 Calling FoFJK, ICntrl=      2127 FMM=F ISym2X=0 I1Cent= 0 IOpClX= 0 NMat=1 NMatS=1 NMatT=0.
 -------------------------------------------------------------------
 Center     Atomic                   Forces (Hartrees/Bohr)
 Number     Number              X              Y              Z
 -------------------------------------------------------------------
      1        6          -0.000022867   -0.000045688    0.000028864
      2        1          -0.000013565   -0.000000540    0.000043919
      3        1          -0.000017904    0.000013677    0.000008622
      4        6          -0.000046483    0.000004081    0.000159548
      5        6          -0.000000051    0.000028431    0.000004849
      6        1           0.000003003    0.000013784   -0.000051918
      7        1           0.000003402   -0.000021535   -0.000109195
      8        1           0.000013375   -0.000017105   -0.000044809
      9       17           0.000048508    0.000079814    0.000040030
     10       17           0.000032582   -0.000054920   -0.000079910
 -------------------------------------------------------------------
 Cartesian Forces:  Max     0.000159548 RMS     0.000049384

 GradGradGradGradGradGradGradGradGradGradGradGradGradGradGradGradGradGrad
 Berny optimization.
 FormGI is forming the generalized inverse of G from B-inverse, IUseBI=4.
 Internal  Forces:  Max     0.000108382 RMS     0.000036673
 Search for a saddle point.
 Step number   5 out of a maximum of   48
 All quantities printed in internal units (Hartrees-Bohrs-Radians)
 Swapping is turned off.
 Update second derivatives using D2CorX and points    2    3    4    5
 ITU=  0  0  0  0  0
     Eigenvalues ---   -0.01512   0.00381   0.02091   0.02294   0.03636
     Eigenvalues ---    0.03648   0.05463   0.05643   0.07997   0.08750
     Eigenvalues ---    0.11092   0.12186   0.12590   0.13888   0.15895
     Eigenvalues ---    0.16147   0.21324   0.35446   0.39666   0.40080
     Eigenvalues ---    0.40147   0.43295   0.44193   0.73360
 Eigenvectors required to have negative eigenvalues:
                          R8        R7        D8        D7        D5
   1                    0.58142  -0.52855  -0.28411  -0.27712   0.21710
                          D6        A12       A11       A10       A9
   1                    0.21011  -0.19055   0.18737  -0.16282   0.15773
 RFO step:  Lambda0=2.044150167D-07 Lambda=-1.23428616D-06.
 Linear search not attempted -- option 19 set.
 Iteration  1 RMS(Cart)=  0.00183633 RMS(Int)=  0.00000128
 Iteration  2 RMS(Cart)=  0.00000175 RMS(Int)=  0.00000007
 Iteration  3 RMS(Cart)=  0.00000000 RMS(Int)=  0.00000007
 Variable       Old X    -DE/DX   Delta X   Delta X   Delta X     New X
                                 (Linear)    (Quad)   (Total)
    R1        2.03031   0.00000   0.00000  -0.00001  -0.00001   2.03031
    R2        2.02749   0.00000   0.00000  -0.00000  -0.00000   2.02748
    R3        2.50161   0.00005   0.00000   0.00021   0.00021   2.50182
    R4        2.73235   0.00003   0.00000  -0.00043  -0.00043   2.73192
    R5        2.01204   0.00001   0.00000   0.00004   0.00004   2.01207
    R6        2.00612  -0.00001   0.00000   0.00000   0.00000   2.00612
    R7        4.85730   0.00007   0.00000   0.00581   0.00581   4.86310
    R8        4.85772   0.00006   0.00000   0.00107   0.00107   4.85880
    R9        2.02494  -0.00000   0.00000  -0.00001  -0.00001   2.02493
    A1        2.03804  -0.00000   0.00000   0.00003   0.00003   2.03808
    A2        2.12517   0.00000   0.00000  -0.00002  -0.00002   2.12516
    A3        2.11997  -0.00000   0.00000  -0.00002  -0.00002   2.11995
    A4        2.10471  -0.00000   0.00000   0.00004   0.00004   2.10475
    A5        2.11048   0.00000   0.00000   0.00004   0.00004   2.11053
    A6        1.76137   0.00011   0.00000   0.00147   0.00147   1.76284
    A7        1.76442  -0.00004   0.00000   0.00063   0.00063   1.76505
    A8        2.06799   0.00000   0.00000  -0.00008  -0.00008   2.06791
    A9        1.50574   0.00001   0.00000  -0.00071  -0.00071   1.50503
   A10        1.50694  -0.00005   0.00000  -0.00050  -0.00050   1.50644
   A11        1.43969  -0.00004   0.00000  -0.00148  -0.00148   1.43821
   A12        1.43966   0.00000   0.00000   0.00055   0.00055   1.44021
   A13        2.11895   0.00003   0.00000  -0.00012  -0.00012   2.11883
   A14        2.11890  -0.00001   0.00000  -0.00004  -0.00004   2.11885
   A15        2.04533  -0.00002   0.00000   0.00016   0.00016   2.04550
   A16        3.52579   0.00007   0.00000   0.00210   0.00210   3.52789
   A17        3.06405   0.00000   0.00000   0.00016   0.00016   3.06422
    D1       -0.00124   0.00002   0.00000   0.00097   0.00097  -0.00026
    D2        3.14130  -0.00001   0.00000  -0.00028  -0.00028   3.14102
    D3        3.14110   0.00004   0.00000   0.00115   0.00115  -3.14094
    D4        0.00045   0.00001   0.00000  -0.00011  -0.00011   0.00034
    D5       -0.00333   0.00006   0.00000   0.00146   0.00146  -0.00187
    D6        3.13736   0.00008   0.00000   0.00266   0.00266   3.14002
    D7        3.14077  -0.00004   0.00000   0.00228   0.00228  -3.14014
    D8       -0.00173  -0.00002   0.00000   0.00348   0.00348   0.00175
    D9       -1.61128  -0.00002   0.00000   0.00141   0.00141  -1.60986
   D10        1.52941   0.00000   0.00000   0.00261   0.00261   1.53203
   D11        1.60785  -0.00002   0.00000   0.00125   0.00125   1.60910
   D12       -1.53464   0.00000   0.00000   0.00245   0.00245  -1.53219
         Item               Value     Threshold  Converged?
 Maximum Force            0.000108     0.000450     YES
 RMS     Force            0.000037     0.000300     YES
[...]
 RMS     Force            0.000017     0.000300     YES
 Maximum Displacement     0.001700     0.001800     YES
 RMS     Displacement     0.000484     0.001200     YES
 Predicted change in Energy=-6.471153D-08
 Optimization completed.
    -- Stationary point found.
                           ----------------------------
                           !   Optimized Parameters   !
                           ! (Angstroms and Degrees)  !
 --------------------------                            --------------------------
 ! Name  Definition              Value          Derivative Info.                !
 --------------------------------------------------------------------------------
 ! R1    R(1,2)                  1.0744         -DE/DX =    0.0                 !
 ! R2    R(1,3)                  1.0729         -DE/DX =    0.0                 !
 ! R3    R(1,5)                  1.3239         -DE/DX =    0.0                 !
 ! R4    R(4,5)                  1.4457         -DE/DX =    0.0                 !
 ! R5    R(4,7)                  1.0647         -DE/DX =    0.0                 !
 ! R6    R(4,8)                  1.0616         -DE/DX =    0.0                 !
 ! R7    R(4,9)                  2.5734         -DE/DX =    0.0                 !
 ! R8    R(4,10)                 2.5712         -DE/DX =    0.0                 !
 ! R9    R(5,6)                  1.0715         -DE/DX =    0.0                 !
 ! A1    A(2,1,3)              116.7732         -DE/DX =    0.0                 !
 ! A2    A(2,1,5)              121.7625         -DE/DX =    0.0                 !
 ! A3    A(3,1,5)              121.4643         -DE/DX =    0.0                 !
 ! A4    A(5,4,7)              120.5932         -DE/DX =    0.0                 !
 ! A5    A(5,4,8)              120.9243         -DE/DX =    0.0                 !
 ! A6    A(5,4,9)              101.0032         -DE/DX =    0.0001              !
 ! A7    A(5,4,10)             101.1299         -DE/DX =    0.0                 !
 ! A8    A(7,4,8)              118.4823         -DE/DX =    0.0                 !
 ! A9    A(7,4,9)               86.232          -DE/DX =    0.0                 !
 ! A10   A(7,4,10)              86.3125         -DE/DX =    0.0                 !
 ! A11   A(8,4,9)               82.4033         -DE/DX =    0.0                 !
 ! A12   A(8,4,10)              82.5182         -DE/DX =    0.0                 !
 ! A13   A(1,5,4)              121.4002         -DE/DX =    0.0                 !
 ! A14   A(1,5,6)              121.4014         -DE/DX =    0.0                 !
 ! A15   A(4,5,6)              117.1983         -DE/DX =    0.0                 !
 ! A16   L(9,4,10,5,-1)        202.1331         -DE/DX =    0.0                 !
 ! A17   L(9,4,10,5,-2)        175.5668         -DE/DX =    0.0                 !
 ! D1    D(2,1,5,4)             -0.0151         -DE/DX =    0.0                 !
 ! D2    D(2,1,5,6)            179.9671         -DE/DX =    0.0                 !
 ! D3    D(3,1,5,4)           -179.9625         -DE/DX =    0.0                 !
 ! D4    D(3,1,5,6)              0.0198         -DE/DX =    0.0                 !
 ! D5    D(7,4,5,1)             -0.1074         -DE/DX =    0.0                 !
 ! D6    D(7,4,5,6)            179.9097         -DE/DX =    0.0                 !
 ! D7    D(8,4,5,1)           -179.9166         -DE/DX =    0.0                 !
 ! D8    D(8,4,5,6)              0.1004         -DE/DX =    0.0                 !
 ! D9    D(9,4,5,1)            -92.2385         -DE/DX =    0.0                 !
 ! D10   D(9,4,5,6)             87.7786         -DE/DX =    0.0                 !
 ! D11   D(10,4,5,1)            92.1948         -DE/DX =    0.0                 !
 ! D12   D(10,4,5,6)           -87.7882         -DE/DX =    0.0                 !
 --------------------------------------------------------------------------------
 GradGradGradGradGradGradGradGradGradGradGradGradGradGradGradGradGradGrad


 ----------------------------------------------------------------------

 Electric dipole moment (input orientation):
 (Debye = 10**-18 statcoulomb cm , SI units = C m)
                  (au)            (Debye)         (10**-30 SI)
   Tot        0.509121D+01      0.129406D+02      0.431651D+02
   x         -0.333328D+01     -0.847236D+01     -0.282608D+02
   y         -0.383073D+01     -0.973675D+01     -0.324783D+02
   z          0.367638D+00      0.934442D+00      0.311696D+01

 Dipole polarizability, Alpha (input orientation).
 (esu units = cm**3 , SI units = C**2 m**2 J**-1)
 Alpha(0;0):
               (au)            (10**-24 esu)      (10**-40 SI)
   iso        0.651185D+02      0.964957D+01      0.107366D+02
   aniso      0.396129D+02      0.587002D+01      0.653128D+01
   xx         0.442315D+02      0.655443D+01      0.729279D+01
   yx         0.127693D+02      0.189222D+01      0.210538D+01
   yy         0.703158D+02      0.104197D+02      0.115935D+02
   zx         0.220767D+01      0.327143D+00      0.363996D+00
   zy        -0.638774D+00     -0.946565D-01     -0.105320D+00
   zz         0.808082D+02      0.119745D+02      0.133235D+02

 First dipole hyperpolarizability, Beta (input orientation).
 ||, _|_  parallel and perpendicular components, (z) with respect to z axis,
 vector components x,y,z.  Values do not include the 1/n! factor of 1/2.
 (esu units = statvolt**-1 cm**4 , SI units = C**3 m**3 J**-2)
 Beta(0;0,0):
               (au)            (10**-30 esu)      (10**-50 SI)
   || (z)     0.594411D+02      0.513524D+00      0.190590D+00
   _|_(z)     0.198137D+02      0.171175D+00      0.635298D-01
   x         -0.210812D+04     -0.182125D+02     -0.675938D+01
   y         -0.352996D+04     -0.304961D+02     -0.113183D+02
   z          0.297205D+03      0.256762D+01      0.952948D+00
   ||         0.824453D+03      0.712263D+01      0.264349D+01
   xxx        0.431501D+02      0.372783D+00      0.138355D+00
   xxy        0.379082D+02      0.327498D+00      0.121547D+00
   yxy        0.539823D+02      0.466365D+00      0.173087D+00
   yyy       -0.440501D+02     -0.380559D+00     -0.141241D+00
   xxz       -0.128074D+03     -0.110646D+01     -0.410653D+00
   yxz       -0.125186D+03     -0.108151D+01     -0.401391D+00
   yyz       -0.918696D+02     -0.793682D+00     -0.294567D+00
   zxz       -0.799837D+03     -0.690997D+01     -0.256457D+01
   zyz       -0.117051D+04     -0.101123D+02     -0.375308D+01
   zzz        0.319012D+03      0.275602D+01      0.102287D+01

 ----------------------------------------------------------------------

 Dipole orientation:
     6          0.52105582         -0.44164115          1.65296905
     1          1.99217909         -1.81093659          1.36492468
     1          0.05413130          0.00671766          3.57433194
     6         -0.03317248          0.03490515         -2.85371473
     6         -0.66341373          0.64212815         -0.26576969
     1         -2.12990921          2.00587263          0.03414360
     1          1.40986873         -1.30433564         -3.26905124
     1         -0.99054052          0.91449257         -4.38155313
    17          3.29725264          3.44369815         -3.82230550
    17         -3.18557304         -3.54680752         -3.77111667

 Electric dipole moment (dipole orientation):
 (Debye = 10**-18 statcoulomb cm , SI units = C m)
                  (au)            (Debye)         (10**-30 SI)
   Tot        0.509121D+01      0.129406D+02      0.431651D+02
   x          0.000000D+00      0.000000D+00      0.000000D+00
   y          0.000000D+00      0.000000D+00      0.000000D+00
   z          0.509121D+01      0.129406D+02      0.431651D+02

 Dipole polarizability, Alpha (dipole orientation).
 (esu units = cm**3 , SI units = C**2 m**2 J**-1)
 Alpha(0;0):
               (au)            (10**-24 esu)      (10**-40 SI)
   iso        0.651185D+02      0.964957D+01      0.107366D+02
   aniso      0.396129D+02      0.587002D+01      0.653128D+01
   xx         0.604928D+02      0.896411D+01      0.997392D+01
   yx         0.190313D+02      0.282015D+01      0.313784D+01
   yy         0.632317D+02      0.936996D+01      0.104255D+02
   zx         0.830586D+01      0.123080D+01      0.136945D+01
   zy        -0.762876D+01     -0.113046D+01     -0.125781D+01
   zz         0.716310D+02      0.106146D+02      0.118104D+02

 First dipole hyperpolarizability, Beta (dipole orientation).
 ||, _|_  parallel and perpendicular components, (z) with respect to z axis,
 vector components x,y,z.  Values do not include the 1/n! factor of 1/2.
 (esu units = statvolt**-1 cm**4 , SI units = C**3 m**3 J**-2)
 Beta(0;0,0):
               (au)            (10**-30 esu)      (10**-50 SI)
   || (z)     0.811537D+03      0.701104D+01      0.260208D+01
   _|_(z)     0.270512D+03      0.233701D+01      0.867360D+00
   x          0.551067D+03      0.476079D+01      0.176692D+01
   y         -0.473926D+03     -0.409435D+01     -0.151958D+01
   z          0.405768D+04      0.350552D+02      0.130104D+02
   ||         0.824453D+03      0.712263D+01      0.264349D+01
   xxx        0.185928D+03      0.160627D+01      0.596152D+00
   xxy        0.596143D+02      0.515021D+00      0.191145D+00
   yxy       -0.225000D+02     -0.194383D+00     -0.721432D-01
   yyy       -0.177028D+03     -0.152939D+01     -0.567617D+00
   xxz        0.681782D+03      0.589006D+01      0.218604D+01
   yxz        0.702175D+03      0.606624D+01      0.225143D+01
   yyz        0.788620D+03      0.681307D+01      0.252860D+01
   zxz        0.202612D+02      0.175041D+00      0.649647D-01
   zyz       -0.405612D+02     -0.350417D+00     -0.130054D+00
   zzz       -0.117841D+03     -0.101806D+01     -0.377842D+00

 ----------------------------------------------------------------------
 1\1\GINC-C417-134\Freq\RHF\3-21G\C3H5Cl2(1-)\TG873513\10-May-2021\0\\#
 N Geom=AllCheck Guess=TCheck SCRF=Check GenChk RHF/3-21G Freq\\Title C
 ard Required\\-1,1\C,-0.2998126673,-0.8951423221,0.0678423764\H,0.6001
 568313,-1.480127687,0.0213160575\H,-1.2228002153,-1.4346523052,0.15801
 14372\C,0.9696731047,1.1530290125,-0.1066411342\C,-0.2747551471,0.4274
 958814,0.0156707461\H,-1.1760172656,1.0052438843,0.0620437499\H,1.8975
 175607,0.6330609203,-0.1557941617\H,0.9810741708,2.2138125317,-0.14649
 20864\Cl,1.5342986963,1.5803751322,2.3674613568\Cl,1.1570530514,1.3901
 446519,-2.6599832916\\Version=ES64L-G16RevA.03\HF=-1030.6003726\RMSD=1
 .550e-09\RMSF=2.896e-05\ZeroPoint=0.0760467\Thermal=0.0826438\Dipole=-
 1.7020341,-1.9891292,0.1961515\DipoleDeriv=0.0445573,-0.0841924,-0.016
 5075,0.2129934,0.5121699,-0.0433496,-0.0264025,-0.0203642,-0.2181551,0
 .0012556,0.0765121,0.0111213,0.036086,0.0689873,0.0016559,0.0128635,-0
 .0014549,0.1859917,-0.0005554,-0.075137,0.0171262,-0.049754,0.065769,0
 .0084585,0.0157908,0.0096696,0.1855183,0.8208091,1.1132503,0.1328511,0
 .4808856,1.0018377,0.0438366,0.1566019,-0.0036964,3.1854222,-0.2364487
 ,-0.7064099,0.0118321,-0.6033079,-1.0611779,0.0696262,0.0067199,0.0757
 62,-0.4543486,-0.0147317,0.0393385,0.0175479,0.0550915,0.0523021,0.002
 7609,0.0171966,0.0037424,0.2339856,0.1094734,-0.0267927,-0.0215164,-0.
 0027301,0.1059759,-0.0113128,-0.0226182,-0.0086464,-0.1900735,0.123479
 8,-0.0127196,-0.0269347,-0.0137459,0.1428797,-0.0131354,-0.0262506,-0.
 0135871,-0.2411558,-0.9553652,-0.1985886,-0.2413251,-0.0771923,-0.9636
 479,-0.174405,-0.3045072,-0.4142217,-1.788229,-0.8924741,-0.1252607,0.
 1158053,-0.0383262,-0.9250959,0.1158647,0.1706057,0.3727968,-1.8989558
 \Polar=44.2315127,12.7693306,70.3157824,2.2076693,-0.638774,80.8081999
 \PolarDeriv=-1.5924315,2.8775222,-2.8153557,-1.0392876,-1.8200555,-9.1
 220423,-3.7323491,-15.7605046,-38.2859975,0.8555869,2.0966892,1.588503
 8,-0.4460099,-1.1638082,0.2861517,-4.6305925,-17.6285325,2.8191202,5.0
 12817,-5.8719953,4.2151046,0.0950364,0.3225001,0.8116259,-2.051494,2.6
 342418,-7.7323707,0.1430521,0.093308,-0.0657413,0.0682147,0.4435784,-0
 .0649123,2.4182198,0.022714,-0.4276728,-9.3802061,-6.8162296,-3.818605
 6,0.7505573,0.6294226,-1.0134669,-3.4667567,-4.1524656,-7.707058,0.246
 3606,0.5611181,-1.4015943,0.534852,0.6038245,0.6013852,-2.0478767,-0.0
 616587,0.4068776,-12.5168312,-10.3948877,-13.4276003,4.769914,4.663801
 2,19.5997646,-2.0127567,-10.0720169,-13.309702,3.2100846,3.4480563,22.
 3702204,4.7662252,4.7051807,4.1530446,24.3050431,33.5435355,-8.62207,1
 2.9730867,11.4195383,19.5758971,-1.1228158,-0.4190938,1.3615408,10.041
 0742,24.8898578,45.1138397,-2.809376,-3.6295488,-15.2377204,-0.9247576
 ,-0.5064921,-1.9681576,3.0504283,15.9751163,-1.1565367,-8.4515843,4.54
 88,-3.4571191,0.1040196,-0.3322094,-2.5584513,3.1319741,-3.5669903,5.0
 101913,-0.1684481,0.0832048,0.2945989,0.1702753,-0.3210851,0.0647845,-
 2.2939371,-0.2391081,0.5640573,7.7923875,-1.4983092,0.8499039,-0.5503,
 -0.2745377,0.7685555,-2.8350469,2.2260664,-1.4632974,-0.0370336,-0.356
 6124,-1.6231752,-0.6137587,-0.3837645,-0.381307,-0.909448,-4.9614937,0
 .5834126,0.7305868,1.5123296,-0.3869737,-0.3654946,-0.3082465,-0.10777
 89,0.7104319,0.4705829,10.4045966,-0.0397644,-0.4327548,2.0062622,-0.5
 672719,-0.4519028,-0.5625764,-3.219726,-2.7064618,0.6800791,3.4994093,
 2.2187588,-0.4766457,3.1252797,-4.6988023,-5.8709377,-0.1054863,2.0185
 709,4.3139994,-2.4451398,3.3683826,-4.3794461,-0.1886496,1.2079507,0.7
 355175,-9.4132471,-12.4737266,-5.3579632,1.9327657,2.0044729,-0.258605
 5,-5.7669091,2.2372213,-3.8688096,0.3204096,1.3126576,3.6557987,1.0446
 777,-5.231843,-3.5519079,-2.7991196,-4.1334816,-2.8639301,-7.2588638,-
 11.4703843,10.510696\HyperPolar=43.150077,37.908222,53.9822924,-44.050
 1443,-128.0744002,-125.1859097,-91.8695894,-799.8373869,-1170.5101249,
 319.0124217\Quadrupole=11.3663766,10.6813624,-22.047739,-9.8016574,-2.
 2394658,-0.6088119\PG=C01 [X(C3H5Cl2)]\NImag=1\\0.73491179,0.01188568,
 0.96905201,-0.04359774,-0.03099733,0.17819715,-0.28853700,0.14202447,0
 .01236330,0.29716937,0.13131980,-0.15876181,-0.00623145,-0.15166488,0.
 16616509,0.01275349,-0.00697910,-0.05581669,-0.01451953,0.00651942,0.0
 3199432,-0.30454141,-0.13674077,0.02380144,-0.01687982,-0.01477847,0.0
 0245371,0.31300783,-0.12613160,-0.14613770,0.01294067,0.01613560,0.012
 52763,-0.00139457,0.14612007,0.15094695,0.02336638,0.01373795,-0.05856
 043,0.00129206,0.00095588,0.00799412,-0.02666144,-0.01558350,0.0340544
 6,0.00299061,-0.02504609,0.00095647,0.00149908,0.00117339,-0.00079504,
 0.00144954,0.00110884,0.00087504,0.67535383,-0.04633693,-0.04302869,0.
 00526049,-0.00172008,0.00143542,-0.00026671,0.00099287,-0.00600867,0.0
 0067173,-0.07842734,0.76791930,0.00200092,0.00367433,0.00499600,-0.000
 73344,-0.00042845,-0.00913979,0.00085889,0.00064435,0.01333379,-0.0436
 3414,-0.02101245,0.05509659,-0.14552742,0.00801190,0.00517488,0.005058
 77,0.03627021,-0.00089329,0.00573430,-0.03579164,0.00201342,-0.2483757
 9,-0.05169572,0.01493431,0.68906954,-0.00176655,-0.60946356,0.02034308
 ,-0.00394219,-0.01706487,0.00136730,0.00465414,-0.01257245,0.00067338,
 -0.03347691,-0.13820758,0.00488819,-0.07740970,0.93925272,0.00568693,0
 .01968664,-0.07627180,0.00062671,-0.00168342,0.01130236,0.00047032,0.0
 0373612,0.01418404,0.01437855,0.00637601,-0.07746124,-0.03660034,-0.02
 386720,0.17455172,0.00652618,-0.00451052,0.00041986,0.00114767,-0.0013
 0503,0.00092849,0.00100850,0.00012381,-0.00077846,-0.02662106,0.017356
 67,0.00169965,-0.28824418,0.14116949,0.01245738,0.30592865,0.03507916,
 -0.01791937,-0.00160511,-0.00112749,-0.00438578,0.00073805,-0.00038250
 ,0.00158235,-0.00038248,-0.02394850,0.01169917,0.00154166,0.14094350,-
 0.15962512,-0.00673389,-0.14912793,0.16951060,-0.00107474,0.00138868,0
 .00982892,0.00092374,0.00074309,0.01263220,-0.00075802,-0.00041365,-0.
 00910929,0.00330126,-0.00159475,0.00457569,0.01241148,-0.00671491,-0.0
 5410502,-0.01502572,0.00620282,0.03393282,0.00176084,0.00035025,-0.000
 27855,0.00029029,-0.00092706,0.00003914,0.00025167,0.00001501,-0.00001
 563,-0.33056898,0.14754470,0.01661411,-0.01886148,0.01764093,0.0013705
 2,-0.00171008,-0.00280701,0.00046464,0.34035990,-0.00035643,0.00187768
 ,-0.00009845,0.00039627,-0.00022223,-0.00000978,0.00011329,0.00005083,
 -0.00000959,0.15171861,-0.15502246,-0.00663954,-0.01902728,0.01350918,
 0.00123660,-0.00327001,-0.00183097,0.00043502,-0.15486827,0.14762682,-
 0.00031755,-0.00019368,-0.00218176,0.00001346,0.00010589,0.00041631,-0
 .00001982,-0.00000030,0.00005325,0.01642750,-0.00625051,-0.03133281,0.
 00281194,-0.00149768,0.00834319,0.00048730,0.00039803,0.00300231,-0.01
 634407,0.00751429,0.04130426,-0.00608043,-0.00189713,0.00074968,0.0001
 6462,0.00001685,0.00004351,0.00007345,-0.00141625,-0.00011092,-0.07047
 394,0.00230729,0.00333820,0.00750925,-0.03213834,0.00149262,0.00125012
 ,0.00087236,-0.00024596,0.00594698,0.02685944,-0.00080143,0.06176675,-
 0.00192792,-0.00057704,0.00026228,-0.00003853,0.00020613,0.00002385,0.
 00017222,-0.00023578,-0.00008213,-0.00304008,-0.42684396,0.01516598,0.
 00496140,-0.00563026,0.00025570,-0.00018990,0.00070444,-0.00007007,-0.
 00381775,-0.00706917,0.00085846,0.00485398,0.43498437,0.00073639,0.000
 26831,0.00260367,0.00004934,0.00001943,0.00077862,-0.00017327,0.000036
 88,-0.00212833,0.00356238,0.01469610,-0.02592970,0.00013066,0.00313460
 ,0.01144916,-0.00019838,-0.00015021,-0.00151872,0.00033034,-0.00141055
 ,0.00855845,-0.00184054,-0.01502015,0.04151097,-0.00089864,0.00358607,
 -0.00104711,0.00005224,-0.00006083,-0.00006983,-0.00004519,-0.00010168
 ,0.00025496,-0.00074414,0.00628755,0.01181090,-0.00467492,-0.00899125,
 -0.00701068,0.00036981,0.00028248,0.00034379,0.00119582,-0.00062874,0.
 00124692,-0.00035897,-0.00086378,-0.00427411,0.00484866,-0.00099544,0.
 00296403,-0.00153226,-0.00002208,0.00005309,0.00007256,-0.00006516,-0.
 00008125,0.00022577,0.00615463,-0.00515735,0.00965378,-0.00389924,-0.0
 0598511,-0.00459533,-0.00013137,0.00015565,0.00020248,-0.00199214,0.00
 040470,-0.00527002,0.00051634,0.00223570,0.00253844,0.00069234,0.00485
 490,-0.00260917,0.00704993,-0.00087164,0.00015610,-0.00005230,-0.00008
 471,-0.00015529,-0.00037605,0.00008396,0.01789990,0.01381581,0.0300894
 9,-0.00972090,-0.01700783,-0.00429420,-0.00037800,0.00030131,0.0003570
 9,-0.00388965,0.00045252,-0.01389695,-0.00174392,-0.00450835,-0.017414
 26,0.00048865,-0.00004302,0.01769573,-0.00060453,0.00233614,0.00145778
 ,0.00003478,-0.00004399,0.00005934,-0.00005887,-0.00006217,-0.00023540
 ,-0.00450917,0.00369099,-0.00688939,-0.00168807,-0.00573963,0.00712798
 ,0.00034438,0.00021593,-0.00034046,0.00133503,-0.00093689,-0.00350424,
 0.00020216,-0.00010965,0.00167720,0.00025533,-0.00025789,-0.00004772,0
 .00468896,-0.00076977,0.00199446,0.00165806,-0.00004109,0.00004734,-0.
 00007103,-0.00008569,-0.00007189,-0.00020701,0.00378345,-0.00678517,-0
 .00748786,-0.00236344,-0.00421294,0.00558877,-0.00011522,0.00010901,-0
 .00017871,-0.00113867,0.00067562,0.00433553,0.00002545,0.00222557,-0.0
 0411286,-0.00020217,0.00055564,0.00036799,0.00090715,0.00546236,0.0030
 5512,-0.00763573,-0.00192342,-0.00017174,0.00005192,-0.00007675,0.0001
 8348,0.00041003,0.00009443,-0.01297191,-0.01169572,0.03577198,0.009737
 84,0.01868107,-0.00769820,0.00038788,-0.00031018,0.00040399,0.00170914
 ,-0.00147052,-0.01426624,-0.00088124,0.00311443,-0.01790985,-0.0017434
 9,-0.00125241,-0.01166450,0.00069491,0.00010711,0.01726857\\0.00001466
 ,0.00000118,-0.00001324,0.00001369,0.00000045,-0.00003482,0.00001318,-
 0.00001570,-0.00004435,0.00000585,0.00000646,-0.00005980,0.00000658,-0
 .00000175,0.00006495,-0.00000462,-0.00001398,0.00000985,-0.00000253,0.
 00001311,0.00003901,-0.00001356,0.00000502,0.00005576,-0.00002224,-0.0
 0005595,-0.00000160,-0.00001102,0.00006117,-0.00001576\\\@


 SILVERMAN'S PARADOX - IF MURPHY'S LAW CAN GO WRONG, IT WILL.
 Job cpu time:       0 days  0 hours  1 minutes 23.3 seconds.
 Elapsed time:       0 days  0 hours  1 minutes 23.9 seconds.
 File lengths (MBytes):  RWF=     59 Int=      0 D2E=      0 Chk=      7 Scr=      1
 Error termination of Gaussian 16 at Mon May 10 17:33:44 2021.