 Entering Gaussian System, Link 0=g16
 Input=Pd2p-ene-CO-transcis-P-fromciscis.gjf
 Output=Pd2p-ene-CO-transcis-P-fromciscis.log
 Initial command:
 /home1/apps/gaussian/16rA.03/g16/l1.exe "/scratch/06321/tg856205/Gau-169578.inp" -scrdir="/scratch/06321/tg856205/"
 Entering Link 1 = /home1/apps/gaussian/16rA.03/g16/l1.exe PID=    169580.
  
 Copyright (c) 1988,1990,1992,1993,1995,1998,2003,2009,2016,
            Gaussian, Inc.  All Rights Reserved.
  
 This is part of the Gaussian(R) 16 program.  It is based on
 the Gaussian(R) 09 system (copyright 2009, Gaussian, Inc.),
 the Gaussian(R) 03 system (copyright 2003, Gaussian, Inc.),
 the Gaussian(R) 98 system (copyright 1998, Gaussian, Inc.),
 the Gaussian(R) 94 system (copyright 1995, Gaussian, Inc.),
 the Gaussian 92(TM) system (copyright 1992, Gaussian, Inc.),
 the Gaussian 90(TM) system (copyright 1990, Gaussian, Inc.),
 the Gaussian 88(TM) system (copyright 1988, Gaussian, Inc.),
 the Gaussian 86(TM) system (copyright 1986, Carnegie Mellon
 University), and the Gaussian 82(TM) system (copyright 1983,
 Carnegie Mellon University). Gaussian is a federally registered
 trademark of Gaussian, Inc.
  
 This software contains proprietary and confidential information,
 including trade secrets, belonging to Gaussian, Inc.
  
 This software is provided under written license and may be
 used, copied, transmitted, or stored only in accord with that
 written license.
  
 The following legend is applicable only to US Government
 contracts under FAR:
  
                    RESTRICTED RIGHTS LEGEND
  
 Use, reproduction and disclosure by the US Government is
 subject to restrictions as set forth in subparagraphs (a)
 and (c) of the Commercial Computer Software - Restricted
 Rights clause in FAR 52.227-19.
  
 Gaussian, Inc.
 340 Quinnipiac St., Bldg. 40, Wallingford CT 06492
  
  
 ---------------------------------------------------------------
 Warning -- This program may not be used in any manner that
 competes with the business of Gaussian, Inc. or will provide
 assistance to any competitor of Gaussian, Inc.  The licensee
 of this program is prohibited from giving any competitor of
 Gaussian, Inc. access to this program.  By using this program,
 the user acknowledges that Gaussian, Inc. is engaged in the
 business of creating and licensing software in the field of
 computational chemistry and represents and warrants to the
 licensee that it is not a competitor of Gaussian, Inc. and that
 it will not use this program in any manner prohibited above.
 ---------------------------------------------------------------
  

 Cite this work as:
 Gaussian 16, Revision A.03,
 M. J. Frisch, G. W. Trucks, H. B. Schlegel, G. E. Scuseria, 
 M. A. Robb, J. R. Cheeseman, G. Scalmani, V. Barone, 
 G. A. Petersson, H. Nakatsuji, X. Li, M. Caricato, A. V. Marenich, 
 J. Bloino, B. G. Janesko, R. Gomperts, B. Mennucci, H. P. Hratchian, 
 J. V. Ortiz, A. F. Izmaylov, J. L. Sonnenberg, D. Williams-Young, 
 F. Ding, F. Lipparini, F. Egidi, J. Goings, B. Peng, A. Petrone, 
 T. Henderson, D. Ranasinghe, V. G. Zakrzewski, J. Gao, N. Rega, 
 G. Zheng, W. Liang, M. Hada, M. Ehara, K. Toyota, R. Fukuda, 
 J. Hasegawa, M. Ishida, T. Nakajima, Y. Honda, O. Kitao, H. Nakai, 
 T. Vreven, K. Throssell, J. A. Montgomery, Jr., J. E. Peralta, 
 F. Ogliaro, M. J. Bearpark, J. J. Heyd, E. N. Brothers, K. N. Kudin, 
 V. N. Staroverov, T. A. Keith, R. Kobayashi, J. Normand, 
 K. Raghavachari, A. P. Rendell, J. C. Burant, S. S. Iyengar, 
 J. Tomasi, M. Cossi, J. M. Millam, M. Klene, C. Adamo, R. Cammi, 
 J. W. Ochterski, R. L. Martin, K. Morokuma, O. Farkas, 
 J. B. Foresman, and D. J. Fox, Gaussian, Inc., Wallingford CT, 2016.
 
 ******************************************
 Gaussian 16:  ES64L-G16RevA.03 25-Dec-2016
                25-Jun-2019 
 ******************************************
 %nprocshared=60
 Will use up to   60 processors via shared memory.
 %mem=60GB
 %chk=Pd2p-ene-CO-transcis-P-fromciscis.chk
 ----------------------------------------------------------------------
 # opt=maxcycles=85 freq=noraman b3lyp/gen scrf=(smd,solvent=water) nos
 ymm geom=connectivity pseudo=read
 ----------------------------------------------------------------------
 1/6=85,18=20,19=15,26=3,38=1,57=2/1,3;
 2/9=110,12=2,15=1,17=6,18=5,40=1/2;
 3/5=7,11=2,16=1,17=8,25=1,30=1,70=32201,71=1,72=1,74=-5/1,2,3;
 4//1;
 5/5=2,38=5,53=1/2;
 6/7=2,8=2,9=2,10=2,28=1/1;
 7/30=1/1,2,3,16;
 1/6=85,18=20,19=15,26=3/3(2);
 2/9=110,15=1/2;
 99//99;
 2/9=110,15=1/2;
 3/5=7,6=1,11=2,16=1,17=8,25=1,30=1,70=32205,71=1,72=1,74=-5,82=7/1,2,3;
 4/5=5,16=3,69=1/1;
 5/5=2,38=5,53=1/2;
 7/30=1/1,2,3,16;
 1/6=85,18=20,19=15,26=3/3(-5);
 2/9=110,15=1/2;
 6/7=2,8=2,9=2,10=2,19=2,28=1/1;
 99/9=1/99;
 -------------------
 Title Card Required
 -------------------
 Symbolic Z-matrix:
 Charge =  1 Multiplicity = 1
 C                     1.20336   0.56017   0.22138 
 H                     1.45817   1.51991   0.78255 
 C                     1.21518  -0.60716  -0.20907 
 H                     1.30476  -1.63832  -0.50853 
 Cl                    1.8666    3.20876   1.67586 
 C                    -1.97653   0.92239  -2.45815 
 O                    -2.84843   1.00975  -3.16718 
 Pd                   -0.43507   0.75558  -1.18797 
 C                     0.93421   1.30997  -2.54339 
 O                     1.70603   1.61828  -3.30476 
 
 Add virtual bond connecting atoms H2         and C1         Dist= 2.16D+00.
 Add virtual bond connecting atoms Cl5        and H2         Dist= 3.69D+00.

 GradGradGradGradGradGradGradGradGradGradGradGradGradGradGradGradGradGrad
 Berny optimization.
 Initialization pass.
                           ----------------------------
                           !    Initial Parameters    !
                           ! (Angstroms and Degrees)  !
 --------------------------                            --------------------------
 ! Name  Definition              Value          Derivative Info.                !
 --------------------------------------------------------------------------------
 ! R1    R(1,2)                  1.1406         estimate D2E/DX2                !
 ! R2    R(1,3)                  1.2442         estimate D2E/DX2                !
 ! R3    R(1,8)                  2.17           estimate D2E/DX2                !
 ! R4    R(2,5)                  1.9537         estimate D2E/DX2                !
 ! R5    R(3,4)                  1.0775         estimate D2E/DX2                !
 ! R6    R(6,7)                  1.1272         estimate D2E/DX2                !
 ! R7    R(6,8)                  2.0043         estimate D2E/DX2                !
 ! R8    R(8,9)                  2.0048         estimate D2E/DX2                !
 ! R9    R(9,10)                 1.1271         estimate D2E/DX2                !
 ! A1    A(2,1,3)              163.2419         estimate D2E/DX2                !
 ! A2    A(2,1,8)              114.3587         estimate D2E/DX2                !
 ! A3    A(3,1,8)               82.3554         estimate D2E/DX2                !
 ! A4    A(1,8,9)               87.0375         estimate D2E/DX2                !
 ! A5    A(6,8,9)               94.2326         estimate D2E/DX2                !
 ! A6    L(1,2,5,10,-1)        177.8063         estimate D2E/DX2                !
 ! A7    L(1,3,4,6,-1)         185.8317         estimate D2E/DX2                !
 ! A8    L(7,6,8,10,-1)        180.448          estimate D2E/DX2                !
 ! A9    L(1,8,6,9,-1)         181.2701         estimate D2E/DX2                !
 ! A10   L(8,9,10,5,-1)        180.0199         estimate D2E/DX2                !
 ! A11   L(1,2,5,10,-2)        178.6053         estimate D2E/DX2                !
 ! A12   L(1,3,4,6,-2)         180.424          estimate D2E/DX2                !
 ! A13   L(7,6,8,10,-2)        180.2602         estimate D2E/DX2                !
 ! A14   L(1,8,6,9,-2)         179.966          estimate D2E/DX2                !
 ! A15   L(8,9,10,5,-2)        179.7846         estimate D2E/DX2                !
 ! D1    D(2,1,3,8)           -175.9915         estimate D2E/DX2                !
 ! D2    D(2,1,8,9)             88.0275         estimate D2E/DX2                !
 ! D3    D(3,1,8,9)            -90.7047         estimate D2E/DX2                !
 ! D4    D(9,6,8,1)           -178.4677         estimate D2E/DX2                !
 --------------------------------------------------------------------------------
 Trust Radius=3.00D-01 FncErr=1.00D-07 GrdErr=1.00D-06 EigMax=2.50D+02 EigMin=1.00D-04
 Number of steps in this run=     85 maximum allowed number of steps=    100.
 GradGradGradGradGradGradGradGradGradGradGradGradGradGradGradGradGradGrad

                          Input orientation:                          
 ---------------------------------------------------------------------
 Center     Atomic      Atomic             Coordinates (Angstroms)
 Number     Number       Type             X           Y           Z
 ---------------------------------------------------------------------
      1          6           0        1.203355    0.560174    0.221383
      2          1           0        1.458169    1.519912    0.782553
      3          6           0        1.215181   -0.607159   -0.209065
      4          1           0        1.304762   -1.638320   -0.508533
      5         17           0        1.866595    3.208761    1.675859
      6          6           0       -1.976526    0.922387   -2.458153
      7          8           0       -2.848434    1.009747   -3.167176
      8         46           0       -0.435065    0.755584   -1.187972
      9          6           0        0.934206    1.309965   -2.543390
     10          8           0        1.706030    1.618277   -3.304755
 ---------------------------------------------------------------------
                    Distance matrix (angstroms):
                    1          2          3          4          5
     1  C    0.000000
     2  H    1.140587   0.000000
     3  C    1.244223   2.359403   0.000000
     4  H    2.318714   3.415387   1.077497   0.000000
     5  Cl   3.093606   1.953719   4.305639   5.346159   0.000000
     6  C    4.174057   4.759868   4.193436   4.596204   6.089921
     7  O    5.301079   5.865787   5.279940   5.597292   7.107893
     8  Pd   2.169997   2.837517   2.353431   3.036348   4.417833
     9  C    2.877255   3.373501   3.033708   3.601436   4.719834
    10  O    3.715631   4.095998   3.844060   4.311067   5.230864
                    6          7          8          9         10
     6  C    0.000000
     7  O    1.127195   0.000000
     8  Pd   2.004317   3.131485   0.000000
     9  C    2.937660   3.845466   2.004844   0.000000
    10  O    3.842163   4.596997   3.131980   1.127140   0.000000
 Symmetry turned off by external request.
 Stoichiometry    C4H2ClO2Pd(1+)
 Framework group  C1[X(C4H2ClO2Pd)]
 Deg. of freedom    24
 Full point group                 C1      NOp   1
 Rotational constants (GHZ):           1.5727845           0.5341313           0.5110818
 General basis read from cards:  (5D, 7F)
 ======================================================================================================
                                       Pseudopotential Parameters
 ======================================================================================================
  Center     Atomic      Valence      Angular      Power
  Number     Number     Electrons     Momentum     of R      Exponent        Coefficient   SO-Coeffient
 ======================================================================================================
    1          6
                                   No pseudopotential on this center.
    2          1
                                   No pseudopotential on this center.
    3          6
                                   No pseudopotential on this center.
    4          1
                                   No pseudopotential on this center.
    5         17
                                   No pseudopotential on this center.
    6          6
                                   No pseudopotential on this center.
    7          8
                                   No pseudopotential on this center.
    8         46           18
                                      F and up 
                                                     0      598.3336444       -0.05631770    0.00000000
                                                     1      162.4298290      -20.12880360    0.00000000
                                                     2       51.5714771     -105.81979230    0.00000000
                                                     2       16.4888260      -42.57333450    0.00000000
                                                     2        5.8287656       -3.61650860    0.00000000
                                      S - F
                                                     0       73.3806304        3.00036510    0.00000000
                                                     1       14.7550438       32.43500930    0.00000000
                                                     2       17.8350204      459.08303830    0.00000000
                                                     2       12.7111477     -868.06290290    0.00000000
                                                     2        9.3292063      514.47260980    0.00000000
                                      P - F
                                                     0       55.6689877        4.95930990    0.00000000
                                                     1       64.2337771       21.17110290    0.00000000
                                                     2       17.6254952      605.05600920    0.00000000
                                                     2       11.9058155     -726.96418460    0.00000000
                                                     2        8.5100832      396.32748830    0.00000000
                                      D - F
                                                     0       49.9994728        3.05087450    0.00000000
                                                     1       39.7477547       22.25065800    0.00000000
                                                     2       11.4321366      674.83576980    0.00000000
                                                     2        9.1790080    -1040.85540480    0.00000000
                                                     2        7.5624429      505.93751470    0.00000000
    9          6
                                   No pseudopotential on this center.
   10          8
                                   No pseudopotential on this center.
 ======================================================================================================
   128 basis functions,   277 primitive gaussians,   137 cartesian basis functions
    38 alpha electrons       38 beta electrons
       nuclear repulsion energy       427.6841665963 Hartrees.
 NAtoms=   10 NActive=   10 NUniq=   10 SFac= 1.00D+00 NAtFMM=   60 NAOKFM=F Big=F
 Integral buffers will be    131072 words long.
 Raffenetti 2 integral format.
 Two-electron integral symmetry is turned off.
 ------------------------------------------------------------------------------
 Polarizable Continuum Model (PCM)
 =================================
 Model                : PCM.
 Atomic radii         : SMD-Coulomb.
 Polarization charges : Total charges.
 Charge compensation  : None.
 Solution method      : On-the-fly selection.
 Cavity type          : VdW (van der Waals Surface) (Alpha=1.000).
 Cavity algorithm     : GePol (No added spheres)
                        Default sphere list used, NSphG=   10.
                        Lebedev-Laikov grids with approx.  5.0 points / Ang**2.
                        Smoothing algorithm: York/Karplus (Gamma=1.0000).
                        Polarization charges: spherical gaussians, with
                                              point-specific exponents (IZeta= 3).
                        Self-potential: point-specific (ISelfS= 7).
                        Self-field    : sphere-specific E.n sum rule (ISelfD= 2).
 1st derivatives      : Analytical E(r).r(x)/FMM algorithm (CHGder, D1EAlg=3).
                        Cavity 1st derivative terms included.
 Solvent              : Water, Eps=  78.355300 Eps(inf)=   1.777849
 ------------------------------------------------------------------------------
 Spheres list:
 ISph  on   Nord     Re0    Alpha      Xe            Ye            Ze
    1   C      1    1.8500  1.000      1.203355      0.560174      0.221383
    2   H      2    1.2000  1.000      1.458169      1.519912      0.782553
    3   C      3    1.8500  1.000      1.215181     -0.607159     -0.209065
    4   H      4    1.2000  1.000      1.304762     -1.638320     -0.508533
    5  Cl      5    2.3800  1.000      1.866595      3.208761      1.675859
    6   C      6    1.8500  1.000     -1.976526      0.922387     -2.458153
    7   O      7    1.5200  1.000     -2.848434      1.009747     -3.167176
    8  Pd      8    1.6300  1.000     -0.435065      0.755584     -1.187972
    9   C      9    1.8500  1.000      0.934206      1.309965     -2.543390
   10   O     10    1.5200  1.000      1.706030      1.618277     -3.304755
 ------------------------------------------------------------------------------
 ------------------------------------------------------------------------------
 Atomic radii for non-electrostatic terms: SMD-CDS.
 ------------------------------------------------------------------------------
 Nuclear repulsion after PCM non-electrostatic terms =      427.7020674463 Hartrees.
 One-electron integrals computed using PRISM.
   1 Symmetry operations used in ECPInt.
 ECPInt:  NShTT=     861 NPrTT=    6046 LenC2=     813 LenP2D=    3923.
 LDataN:  DoStor=T MaxTD1= 5 Len=  102
 NBasis=   128 RedAO= T EigKep=  1.14D-03  NBF=   128
 NBsUse=   128 1.00D-06 EigRej= -1.00D+00 NBFU=   128
 Defaulting to unpruned grid for atomic number  46.
 ExpMin= 2.62D-02 ExpMax= 2.52D+04 ExpMxC= 3.78D+03 IAcc=3 IRadAn=         5 AccDes= 0.00D+00
 Harris functional with IExCor=  402 and IRadAn=       5 diagonalized for initial guess.
 HarFok:  IExCor=  402 AccDes= 0.00D+00 IRadAn=         5 IDoV= 1 UseB2=F ITyADJ=14
 ICtDFT=  3500011 ScaDFX=  1.000000  1.000000  1.000000  1.000000
 Defaulting to unpruned grid for atomic number  46.
 FoFCou: FMM=F IPFlag=           0 FMFlag=      100000 FMFlg1=           0
         NFxFlg=           0 DoJE=T BraDBF=F KetDBF=T FulRan=T
         wScrn=  0.000000 ICntrl=       500 IOpCl=  0 I1Cent=   200000004 NGrid=           0
         NMat0=    1 NMatS0=      1 NMatT0=    0 NMatD0=    1 NMtDS0=    0 NMtDT0=    0
 Symmetry not used in FoFCou.
 Keep R1 ints in memory in canonical form, NReq=91837565.
 Requested convergence on RMS density matrix=1.00D-08 within 128 cycles.
 Requested convergence on MAX density matrix=1.00D-06.
 Requested convergence on             energy=1.00D-06.
 No special actions if energy rises.
 Defaulting to unpruned grid for atomic number  46.
 Defaulting to unpruned grid for atomic number  46.
 Defaulting to unpruned grid for atomic number  46.
 Defaulting to unpruned grid for atomic number  46.
 Defaulting to unpruned grid for atomic number  46.
 Defaulting to unpruned grid for atomic number  46.
 Defaulting to unpruned grid for atomic number  46.
 Defaulting to unpruned grid for atomic number  46.
 Defaulting to unpruned grid for atomic number  46.
 Defaulting to unpruned grid for atomic number  46.
 Defaulting to unpruned grid for atomic number  46.
 Defaulting to unpruned grid for atomic number  46.
 Defaulting to unpruned grid for atomic number  46.
 Defaulting to unpruned grid for atomic number  46.
 Defaulting to unpruned grid for atomic number  46.
 Defaulting to unpruned grid for atomic number  46.
 Defaulting to unpruned grid for atomic number  46.
 Defaulting to unpruned grid for atomic number  46.
 Defaulting to unpruned grid for atomic number  46.
 Defaulting to unpruned grid for atomic number  46.
 Defaulting to unpruned grid for atomic number  46.
 Defaulting to unpruned grid for atomic number  46.
 Defaulting to unpruned grid for atomic number  46.
 Defaulting to unpruned grid for atomic number  46.
 Defaulting to unpruned grid for atomic number  46.
 Defaulting to unpruned grid for atomic number  46.
 Defaulting to unpruned grid for atomic number  46.
 Defaulting to unpruned grid for atomic number  46.
 Defaulting to unpruned grid for atomic number  46.
 Defaulting to unpruned grid for atomic number  46.
 Defaulting to unpruned grid for atomic number  46.
 Defaulting to unpruned grid for atomic number  46.
 Defaulting to unpruned grid for atomic number  46.
 Defaulting to unpruned grid for atomic number  46.
 Defaulting to unpruned grid for atomic number  46.
 Defaulting to unpruned grid for atomic number  46.
 Defaulting to unpruned grid for atomic number  46.
 Defaulting to unpruned grid for atomic number  46.
 Defaulting to unpruned grid for atomic number  46.
 Defaulting to unpruned grid for atomic number  46.
 Defaulting to unpruned grid for atomic number  46.
 Defaulting to unpruned grid for atomic number  46.
 Defaulting to unpruned grid for atomic number  46.
 Defaulting to unpruned grid for atomic number  46.
 Defaulting to unpruned grid for atomic number  46.
 Defaulting to unpruned grid for atomic number  46.
 Defaulting to unpruned grid for atomic number  46.
 Defaulting to unpruned grid for atomic number  46.
 Defaulting to unpruned grid for atomic number  46.
 Defaulting to unpruned grid for atomic number  46.
 Defaulting to unpruned grid for atomic number  46.
 Defaulting to unpruned grid for atomic number  46.
 Defaulting to unpruned grid for atomic number  46.
 Defaulting to unpruned grid for atomic number  46.
 Defaulting to unpruned grid for atomic number  46.
 Defaulting to unpruned grid for atomic number  46.
 Defaulting to unpruned grid for atomic number  46.
 Defaulting to unpruned grid for atomic number  46.
 Defaulting to unpruned grid for atomic number  46.
 Defaulting to unpruned grid for atomic number  46.
 Inv3:  Mode=1 IEnd=     5459403.
 Iteration    1 A*A^-1 deviation from unit magnitude is 3.11D-15 for   1110.
 Iteration    1 A*A^-1 deviation from orthogonality  is 1.41D-15 for    878    551.
 Iteration    1 A^-1*A deviation from unit magnitude is 3.33D-15 for    375.
 Iteration    1 A^-1*A deviation from orthogonality  is 1.60D-15 for    293     90.
 EnCoef did   100 forward-backward iterations
 EnCoef did   100 forward-backward iterations
 EnCoef did   100 forward-backward iterations
 Rare condition: small coef for last iteration:  0.000D+00
 EnCoef did     7 forward-backward iterations
 Error on total polarization charges =  0.02250
 SCF Done:  E(RB3LYP) =  -890.710328345     A.U. after   24 cycles
            NFock= 24  Conv=0.56D-08     -V/T= 2.1044
 SMD-CDS (non-electrostatic) energy       (kcal/mol) =      11.23
 (included in total energy above)

 **********************************************************************

            Population analysis using the SCF density.

 **********************************************************************

 Alpha  occ. eigenvalues -- -101.43086 -19.32030 -19.30706 -10.40684 -10.38025
 Alpha  occ. eigenvalues --  -10.28066 -10.25952  -9.36042  -7.11882  -7.11679
 Alpha  occ. eigenvalues --   -7.11652  -3.48486  -2.22133  -2.21398  -2.16818
 Alpha  occ. eigenvalues --   -1.22353  -1.21132  -0.83368  -0.71006  -0.63754
 Alpha  occ. eigenvalues --   -0.62599  -0.60472  -0.54584  -0.53858  -0.53199
 Alpha  occ. eigenvalues --   -0.52875  -0.52704  -0.51661  -0.51591  -0.43238
 Alpha  occ. eigenvalues --   -0.40385  -0.38278  -0.37890  -0.34885  -0.33651
 Alpha  occ. eigenvalues --   -0.25266  -0.24617  -0.24582
 Alpha virt. eigenvalues --   -0.20808  -0.11026  -0.08772  -0.06604  -0.06415
 Alpha virt. eigenvalues --   -0.03062  -0.01283   0.02054   0.03292   0.03892
 Alpha virt. eigenvalues --    0.04909   0.11289   0.14558   0.16614   0.20172
 Alpha virt. eigenvalues --    0.21832   0.29147   0.29262   0.39489   0.43820
 Alpha virt. eigenvalues --    0.44800   0.46461   0.47008   0.49040   0.50082
 Alpha virt. eigenvalues --    0.51675   0.53944   0.55704   0.60307   0.61096
 Alpha virt. eigenvalues --    0.62139   0.62522   0.63046   0.65046   0.66652
 Alpha virt. eigenvalues --    0.68786   0.71127   0.77389   0.80447   0.82619
 Alpha virt. eigenvalues --    0.83905   0.88504   0.90698   0.94329   0.94978
 Alpha virt. eigenvalues --    0.95437   0.95898   0.95919   0.96168   0.97368
 Alpha virt. eigenvalues --    0.99927   1.01605   1.06367   1.10285   1.14748
 Alpha virt. eigenvalues --    1.25993   1.36783   1.41830   1.41983   1.42553
 Alpha virt. eigenvalues --    1.43074   1.43574   1.46312   1.47559   1.50860
 Alpha virt. eigenvalues --    1.52491   1.54411   1.58629   1.65519   1.68545
 Alpha virt. eigenvalues --    1.76691   1.85904   1.89146   1.89939   1.90488
 Alpha virt. eigenvalues --    1.90821   1.93636   2.36418   2.38692   2.40242
 Alpha virt. eigenvalues --    2.40601   2.47241   2.53553   2.55070   2.55671
 Alpha virt. eigenvalues --    2.57201   2.94944   2.99813   3.02167   7.93962
          Condensed to atoms (all electrons):
               1          2          3          4          5          6
     1  C    5.386346   0.225837   0.506728  -0.033536  -0.091860  -0.006942
     2  H    0.225837   0.471158  -0.048135   0.000212   0.142307  -0.000105
     3  C    0.506728  -0.048135   5.108877   0.360408   0.001189   0.000713
     4  H   -0.033536   0.000212   0.360408   0.356641  -0.000039   0.000065
     5  Cl  -0.091860   0.142307   0.001189  -0.000039  17.655799   0.000018
     6  C   -0.006942  -0.000105   0.000713   0.000065   0.000018   4.745972
     7  O    0.000007  -0.000000   0.000002  -0.000000  -0.000000   0.693966
     8  Pd   0.154057  -0.000786   0.029336  -0.001684   0.007430   0.172638
     9  C    0.014527  -0.001044   0.003958  -0.000408  -0.000741  -0.004684
    10  O   -0.000330   0.000005  -0.000159  -0.000012   0.000011  -0.000532
               7          8          9         10
     1  C    0.000007   0.154057   0.014527  -0.000330
     2  H   -0.000000  -0.000786  -0.001044   0.000005
     3  C    0.000002   0.029336   0.003958  -0.000159
     4  H   -0.000000  -0.001684  -0.000408  -0.000012
     5  Cl  -0.000000   0.007430  -0.000741   0.000011
     6  C    0.693966   0.172638  -0.004684  -0.000532
     7  O    7.426836  -0.001725  -0.000316   0.000001
     8  Pd  -0.001725  16.737095   0.198701  -0.002270
     9  C   -0.000316   0.198701   4.676244   0.696588
    10  O    0.000001  -0.002270   0.696588   7.408238
 Mulliken charges:
               1
     1  C   -0.154836
     2  H    0.210551
     3  C    0.037084
     4  H    0.318353
     5  Cl  -0.714114
     6  C    0.398892
     7  O   -0.118772
     8  Pd   0.707208
     9  C    0.417175
    10  O   -0.101541
 Sum of Mulliken charges =   1.00000
 Mulliken charges with hydrogens summed into heavy atoms:
               1
     1  C    0.055716
     3  C    0.355436
     5  Cl  -0.714114
     6  C    0.398892
     7  O   -0.118772
     8  Pd   0.707208
     9  C    0.417175
    10  O   -0.101541
 Electronic spatial extent (au):  <R**2>=           2852.0059
 Charge=              1.0000 electrons
 Dipole moment (field-independent basis, Debye):
    X=             -7.5677    Y=             -6.6674    Z=            -16.9641  Tot=             19.7359
 Quadrupole moment (field-independent basis, Debye-Ang):
   XX=            -62.8574   YY=            -87.6794   ZZ=            -49.2216
   XY=            -24.6161   XZ=             -6.1739   YZ=            -28.1528
 Traceless Quadrupole moment (field-independent basis, Debye-Ang):
   XX=              3.7287   YY=            -21.0933   ZZ=             17.3645
   XY=            -24.6161   XZ=             -6.1739   YZ=            -28.1528
 Octapole moment (field-independent basis, Debye-Ang**2):
  XXX=           -101.9571  YYY=           -365.4878  ZZZ=             80.5741  XYY=            -84.8576
  XXY=           -117.4670  XXZ=             14.3298  XZZ=            -48.4969  YZZ=            -90.1517
  YYZ=            -24.0136  XYZ=            -29.8879
 Hexadecapole moment (field-independent basis, Debye-Ang**3):
 XXXX=           -965.7546 YYYY=          -1594.3718 ZZZZ=          -1316.7061 XXXY=           -323.0648
 XXXZ=           -270.5950 YYYX=           -458.6817 YYYZ=           -198.1605 ZZZX=           -268.3509
 ZZZY=           -107.1011 XXYY=           -471.7323 XXZZ=           -395.3579 YYZZ=           -510.3553
 XXYZ=            -73.7308 YYXZ=           -193.2942 ZZXY=           -139.6784
 N-N= 4.277020674463D+02 E-N=-2.912130543368D+03  KE= 8.065387505336D+02
   1 Symmetry operations used in ECPInt.
 ECPInt:  NShTT=     861 NPrTT=    6046 LenC2=     813 LenP2D=    3923.
 LDataN:  DoStor=T MaxTD1= 6 Len=  172
 D1PCM: PCM CHGder 1st derivatives, ID1Alg=3 FixD1E=F DoIter=F DoCFld=F I1PDM=0.
 Calling FoFJK, ICntrl=      2127 FMM=F ISym2X=0 I1Cent= 0 IOpClX= 0 NMat=1 NMatS=1 NMatT=0.
 Defaulting to unpruned grid for atomic number  46.
 Defaulting to unpruned grid for atomic number  46.
 Defaulting to unpruned grid for atomic number  46.
 Defaulting to unpruned grid for atomic number  46.
 Defaulting to unpruned grid for atomic number  46.
 Defaulting to unpruned grid for atomic number  46.
 Defaulting to unpruned grid for atomic number  46.
 Defaulting to unpruned grid for atomic number  46.
 Defaulting to unpruned grid for atomic number  46.
 Defaulting to unpruned grid for atomic number  46.
 Defaulting to unpruned grid for atomic number  46.
 Defaulting to unpruned grid for atomic number  46.
 Defaulting to unpruned grid for atomic number  46.
 Defaulting to unpruned grid for atomic number  46.
 Defaulting to unpruned grid for atomic number  46.
 Defaulting to unpruned grid for atomic number  46.
 Defaulting to unpruned grid for atomic number  46.
 Defaulting to unpruned grid for atomic number  46.
 Defaulting to unpruned grid for atomic number  46.
 Defaulting to unpruned grid for atomic number  46.
 Defaulting to unpruned grid for atomic number  46.
 Defaulting to unpruned grid for atomic number  46.
 Defaulting to unpruned grid for atomic number  46.
 Defaulting to unpruned grid for atomic number  46.
 Defaulting to unpruned grid for atomic number  46.
 Defaulting to unpruned grid for atomic number  46.
 Defaulting to unpruned grid for atomic number  46.
 Defaulting to unpruned grid for atomic number  46.
 Defaulting to unpruned grid for atomic number  46.
 Defaulting to unpruned grid for atomic number  46.
 Defaulting to unpruned grid for atomic number  46.
 Defaulting to unpruned grid for atomic number  46.
 Defaulting to unpruned grid for atomic number  46.
 Defaulting to unpruned grid for atomic number  46.
 Defaulting to unpruned grid for atomic number  46.
 Defaulting to unpruned grid for atomic number  46.
 Defaulting to unpruned grid for atomic number  46.
 Defaulting to unpruned grid for atomic number  46.
 Defaulting to unpruned grid for atomic number  46.
 Defaulting to unpruned grid for atomic number  46.
 Defaulting to unpruned grid for atomic number  46.
 Defaulting to unpruned grid for atomic number  46.
 Defaulting to unpruned grid for atomic number  46.
 Defaulting to unpruned grid for atomic number  46.
 Defaulting to unpruned grid for atomic number  46.
 Defaulting to unpruned grid for atomic number  46.
 Defaulting to unpruned grid for atomic number  46.
 Defaulting to unpruned grid for atomic number  46.
 Defaulting to unpruned grid for atomic number  46.
 Defaulting to unpruned grid for atomic number  46.
 Defaulting to unpruned grid for atomic number  46.
 Defaulting to unpruned grid for atomic number  46.
 Defaulting to unpruned grid for atomic number  46.
 Defaulting to unpruned grid for atomic number  46.
 Defaulting to unpruned grid for atomic number  46.
 Defaulting to unpruned grid for atomic number  46.
 Defaulting to unpruned grid for atomic number  46.
 Defaulting to unpruned grid for atomic number  46.
 Defaulting to unpruned grid for atomic number  46.
 Defaulting to unpruned grid for atomic number  46.
 -------------------------------------------------------------------
 Center     Atomic                   Forces (Hartrees/Bohr)
 Number     Number              X              Y              Z
 -------------------------------------------------------------------
      1        6           0.001053063   -0.008955035   -0.004165742
      2        1          -0.001757912   -0.002329023   -0.001044388
      3        6           0.006900602    0.010232499    0.010836323
      4        1          -0.001903275    0.000748877   -0.002380025
      5       17           0.000053135    0.000554799    0.000209270
      6        6          -0.003703777    0.008036016   -0.003836442
      7        8          -0.002727654   -0.001285074   -0.002342354
      8       46           0.020356954    0.000682423   -0.013318484
      9        6          -0.018320646   -0.007930346    0.015531257
     10        8           0.000049510    0.000244865    0.000510585
 -------------------------------------------------------------------
 Cartesian Forces:  Max     0.020356954 RMS     0.007589764

 GradGradGradGradGradGradGradGradGradGradGradGradGradGradGradGradGradGrad
 Berny optimization.
 FormGI is forming the generalized inverse of G from B-inverse, IUseBI=4.
 Internal  Forces:  Max     0.025488483 RMS     0.006368187
 Search for a local minimum.
 Step number   1 out of a maximum of   85
 All quantities printed in internal units (Hartrees-Bohrs-Radians)
 Mixed Optimization -- RFO/linear search
 Second derivative matrix not updated -- first step.
 ITU=  0
     Eigenvalues ---    0.00230   0.00230   0.00230   0.00230   0.00230
     Eigenvalues ---    0.00230   0.00400   0.00400   0.03965   0.05301
     Eigenvalues ---    0.05301   0.06221   0.08483   0.11852   0.15974
     Eigenvalues ---    0.17850   0.17875   0.21989   0.25000   0.29565
     Eigenvalues ---    0.36298   0.85408   1.51911   1.51956
 RFO step:  Lambda=-9.21191441D-03 EMin= 2.30000000D-03
 Linear search not attempted -- first point.
 Maximum step size (   0.300) exceeded in Quadratic search.
    -- Step size scaled by   0.530
 Iteration  1 RMS(Cart)=  0.04020170 RMS(Int)=  0.03807750
 Iteration  2 RMS(Cart)=  0.05871894 RMS(Int)=  0.01030865
 Iteration  3 RMS(Cart)=  0.00943340 RMS(Int)=  0.00194126
 Iteration  4 RMS(Cart)=  0.00325357 RMS(Int)=  0.00008250
 Iteration  5 RMS(Cart)=  0.00001079 RMS(Int)=  0.00006164
 Iteration  6 RMS(Cart)=  0.00000004 RMS(Int)=  0.00006164
 Variable       Old X    -DE/DX   Delta X   Delta X   Delta X     New X
                                 (Linear)    (Quad)   (Total)
    R1        2.15540  -0.00217   0.00000  -0.00378  -0.00378   2.15162
    R2        2.35124  -0.01330   0.00000  -0.00816  -0.00816   2.34308
    R3        4.10070   0.00556   0.00000   0.02308   0.02308   4.12378
    R4        3.69199   0.00065   0.00000   0.00481   0.00481   3.69680
    R5        2.03617  -0.00027   0.00000  -0.00038  -0.00038   2.03580
    R6        2.13009   0.00347   0.00000   0.00120   0.00120   2.13129
    R7        3.78761   0.00939   0.00000   0.02648   0.02648   3.81409
    R8        3.78861  -0.02549   0.00000  -0.07195  -0.07195   3.71666
    R9        2.12999  -0.00026   0.00000  -0.00009  -0.00009   2.12990
    A1        2.84911  -0.00230   0.00000  -0.00414  -0.00414   2.84497
    A2        1.99594  -0.00521   0.00000  -0.01324  -0.01324   1.98270
    A3        1.43737   0.00750   0.00000   0.01735   0.01735   1.45472
    A4        1.51909   0.00080   0.00000  -0.00450  -0.00450   1.51459
    A5        1.64467  -0.00421   0.00000  -0.01473  -0.01473   1.62994
    A6        3.10331  -0.00075   0.00000  -0.03456  -0.03456   3.06874
    A7        3.24338  -0.00601   0.00000  -0.24101  -0.24101   3.00236
    A8        3.14941   0.00097   0.00000   0.04460   0.04460   3.19401
    A9        3.16376  -0.00341   0.00000  -0.01923  -0.01924   3.14452
   A10        3.14194  -0.00092   0.00000  -0.00784  -0.00784   3.13409
   A11        3.11725  -0.00046   0.00000  -0.02129  -0.02129   3.09597
   A12        3.14899  -0.00142   0.00000  -0.05690  -0.05690   3.09209
   A13        3.14613   0.00285   0.00000   0.13136   0.13136   3.27749
   A14        3.14100   0.00010   0.00000   0.00089   0.00056   3.14156
   A15        3.13783   0.00013   0.00000   0.00112   0.00112   3.13895
    D1       -3.07163   0.00003   0.00000   0.00074   0.00074  -3.07089
    D2        1.53637   0.00147   0.00000   0.07032   0.07032   1.60669
    D3       -1.58310   0.00160   0.00000   0.07072   0.07072  -1.51237
    D4       -3.11485  -0.00037   0.00000  -0.01693  -0.01694  -3.13178
         Item               Value     Threshold  Converged?
 Maximum Force            0.025488     0.000450     NO 
 RMS     Force            0.006368     0.000300     NO 
 Maximum Displacement     0.378261     0.001800     NO 
 RMS     Displacement     0.110149     0.001200     NO 
 Predicted change in Energy=-4.049038D-03
 GradGradGradGradGradGradGradGradGradGradGradGradGradGradGradGradGradGrad

                          Input orientation:                          
 ---------------------------------------------------------------------
 Center     Atomic      Atomic             Coordinates (Angstroms)
 Number     Number       Type             X           Y           Z
 ---------------------------------------------------------------------
      1          6           0        1.231805    0.566526    0.248409
      2          1           0        1.466732    1.520060    0.824575
      3          6           0        1.271559   -0.589783   -0.197381
      4          1           0        1.225063   -1.536862   -0.708700
      5         17           0        1.817948    3.241643    1.684672
      6          6           0       -1.958679    0.976910   -2.452866
      7          8           0       -2.841289    0.955164   -3.154671
      8         46           0       -0.423695    0.780489   -1.157147
      9          6           0        0.929027    1.239760   -2.508963
     10          8           0        1.709802    1.505422   -3.277176
 ---------------------------------------------------------------------
                    Distance matrix (angstroms):
                    1          2          3          4          5
     1  C    0.000000
     2  H    1.138589   0.000000
     3  C    1.239904   2.352430   0.000000
     4  H    2.310919   3.428427   1.077297   0.000000
     5  Cl   3.092356   1.956263   4.303544   5.377160   0.000000
     6  C    4.200534   4.771800   4.239833   4.415584   6.042446
     7  O    5.321850   5.891736   5.296031   5.359868   7.096177
     8  Pd   2.182212   2.836883   2.381740   2.879171   4.377006
     9  C    2.854473   3.388241   2.967823   3.322381   4.731204
    10  O    3.679640   4.108973   3.750610   4.010926   5.257955
                    6          7          8          9         10
     6  C    0.000000
     7  O    1.127831   0.000000
     8  Pd   2.018327   3.140919   0.000000
     9  C    2.900187   3.835781   1.966772   0.000000
    10  O    3.796915   4.585872   3.093842   1.127092   0.000000
 Symmetry turned off by external request.
 Stoichiometry    C4H2ClO2Pd(1+)
 Framework group  C1[X(C4H2ClO2Pd)]
 Deg. of freedom    24
 Full point group                 C1      NOp   1
 Rotational constants (GHZ):           1.5882019           0.5402278           0.5137021
 Basis read from rwf:  (5D, 7F)
 Pseudo-potential data read from rwf file.
   128 basis functions,   277 primitive gaussians,   137 cartesian basis functions
    38 alpha electrons       38 beta electrons
       nuclear repulsion energy       429.0893599634 Hartrees.
 NAtoms=   10 NActive=   10 NUniq=   10 SFac= 1.00D+00 NAtFMM=   60 NAOKFM=F Big=F
 Integral buffers will be    131072 words long.
 Raffenetti 2 integral format.
 Two-electron integral symmetry is turned off.
 ------------------------------------------------------------------------------
 Polarizable Continuum Model (PCM)
 =================================
 Model                : PCM.
 Atomic radii         : SMD-Coulomb.
 Polarization charges : Total charges.
 Charge compensation  : None.
 Solution method      : On-the-fly selection.
 Cavity type          : VdW (van der Waals Surface) (Alpha=1.000).
 Cavity algorithm     : GePol (No added spheres)
                        Default sphere list used, NSphG=   10.
                        Lebedev-Laikov grids with approx.  5.0 points / Ang**2.
                        Smoothing algorithm: York/Karplus (Gamma=1.0000).
                        Polarization charges: spherical gaussians, with
                                              point-specific exponents (IZeta= 3).
                        Self-potential: point-specific (ISelfS= 7).
                        Self-field    : sphere-specific E.n sum rule (ISelfD= 2).
 1st derivatives      : Analytical E(r).r(x)/FMM algorithm (CHGder, D1EAlg=3).
                        Cavity 1st derivative terms included.
 Solvent              : Water, Eps=  78.355300 Eps(inf)=   1.777849
 ------------------------------------------------------------------------------
 Spheres list:
 ISph  on   Nord     Re0    Alpha      Xe            Ye            Ze
    1   C      1    1.8500  1.000      1.231805      0.566526      0.248409
    2   H      2    1.2000  1.000      1.466732      1.520060      0.824575
    3   C      3    1.8500  1.000      1.271559     -0.589783     -0.197381
    4   H      4    1.2000  1.000      1.225063     -1.536862     -0.708700
    5  Cl      5    2.3800  1.000      1.817948      3.241643      1.684672
    6   C      6    1.8500  1.000     -1.958679      0.976910     -2.452866
    7   O      7    1.5200  1.000     -2.841289      0.955164     -3.154671
    8  Pd      8    1.6300  1.000     -0.423695      0.780489     -1.157147
    9   C      9    1.8500  1.000      0.929027      1.239760     -2.508963
   10   O     10    1.5200  1.000      1.709802      1.505422     -3.277176
 ------------------------------------------------------------------------------
 ------------------------------------------------------------------------------
 Atomic radii for non-electrostatic terms: SMD-CDS.
 ------------------------------------------------------------------------------
 Nuclear repulsion after PCM non-electrostatic terms =      429.1070950054 Hartrees.
 One-electron integrals computed using PRISM.
   1 Symmetry operations used in ECPInt.
 ECPInt:  NShTT=     861 NPrTT=    6046 LenC2=     814 LenP2D=    3929.
 LDataN:  DoStor=T MaxTD1= 5 Len=  102
 NBasis=   128 RedAO= T EigKep=  1.38D-03  NBF=   128
 NBsUse=   128 1.00D-06 EigRej= -1.00D+00 NBFU=   128
 Defaulting to unpruned grid for atomic number  46.
 Initial guess from the checkpoint file:  "Pd2p-ene-CO-transcis-P-fromciscis.chk"
 B after Tr=    -0.011554    0.038166    0.070066
         Rot=    0.999968    0.007280    0.003258    0.000949 Ang=   0.92 deg.
 ExpMin= 2.62D-02 ExpMax= 2.52D+04 ExpMxC= 3.78D+03 IAcc=3 IRadAn=         5 AccDes= 0.00D+00
 Harris functional with IExCor=  402 and IRadAn=       5 diagonalized for initial guess.
 HarFok:  IExCor=  402 AccDes= 0.00D+00 IRadAn=         5 IDoV= 1 UseB2=F ITyADJ=14
 ICtDFT=  3500011 ScaDFX=  1.000000  1.000000  1.000000  1.000000
 Defaulting to unpruned grid for atomic number  46.
 FoFCou: FMM=F IPFlag=           0 FMFlag=      100000 FMFlg1=           0
         NFxFlg=           0 DoJE=T BraDBF=F KetDBF=T FulRan=T
         wScrn=  0.000000 ICntrl=       500 IOpCl=  0 I1Cent=   200000004 NGrid=           0
         NMat0=    1 NMatS0=      1 NMatT0=    0 NMatD0=    1 NMtDS0=    0 NMtDT0=    0
 Symmetry not used in FoFCou.
 Keep R1 ints in memory in canonical form, NReq=91837565.
 Requested convergence on RMS density matrix=1.00D-08 within 128 cycles.
 Requested convergence on MAX density matrix=1.00D-06.
 Requested convergence on             energy=1.00D-06.
 No special actions if energy rises.
 Defaulting to unpruned grid for atomic number  46.
 Defaulting to unpruned grid for atomic number  46.
 Defaulting to unpruned grid for atomic number  46.
 Defaulting to unpruned grid for atomic number  46.
 Defaulting to unpruned grid for atomic number  46.
 Defaulting to unpruned grid for atomic number  46.
 Defaulting to unpruned grid for atomic number  46.
 Defaulting to unpruned grid for atomic number  46.
 Defaulting to unpruned grid for atomic number  46.
 Defaulting to unpruned grid for atomic number  46.
 Defaulting to unpruned grid for atomic number  46.
 Defaulting to unpruned grid for atomic number  46.
 Defaulting to unpruned grid for atomic number  46.
 Defaulting to unpruned grid for atomic number  46.
 Defaulting to unpruned grid for atomic number  46.
 Defaulting to unpruned grid for atomic number  46.
 Defaulting to unpruned grid for atomic number  46.
 Defaulting to unpruned grid for atomic number  46.
 Defaulting to unpruned grid for atomic number  46.
 Defaulting to unpruned grid for atomic number  46.
 Defaulting to unpruned grid for atomic number  46.
 Defaulting to unpruned grid for atomic number  46.
 Defaulting to unpruned grid for atomic number  46.
 Defaulting to unpruned grid for atomic number  46.
 Defaulting to unpruned grid for atomic number  46.
 Defaulting to unpruned grid for atomic number  46.
 Defaulting to unpruned grid for atomic number  46.
 Defaulting to unpruned grid for atomic number  46.
 Defaulting to unpruned grid for atomic number  46.
 Defaulting to unpruned grid for atomic number  46.
 Defaulting to unpruned grid for atomic number  46.
 Defaulting to unpruned grid for atomic number  46.
 Defaulting to unpruned grid for atomic number  46.
 Defaulting to unpruned grid for atomic number  46.
 Defaulting to unpruned grid for atomic number  46.
 Defaulting to unpruned grid for atomic number  46.
 Defaulting to unpruned grid for atomic number  46.
 Defaulting to unpruned grid for atomic number  46.
 Defaulting to unpruned grid for atomic number  46.
 Defaulting to unpruned grid for atomic number  46.
 Defaulting to unpruned grid for atomic number  46.
 Defaulting to unpruned grid for atomic number  46.
 Defaulting to unpruned grid for atomic number  46.
 Defaulting to unpruned grid for atomic number  46.
 Defaulting to unpruned grid for atomic number  46.
 Defaulting to unpruned grid for atomic number  46.
 Defaulting to unpruned grid for atomic number  46.
 Defaulting to unpruned grid for atomic number  46.
 Defaulting to unpruned grid for atomic number  46.
 Defaulting to unpruned grid for atomic number  46.
 Defaulting to unpruned grid for atomic number  46.
 Defaulting to unpruned grid for atomic number  46.
 Defaulting to unpruned grid for atomic number  46.
 Defaulting to unpruned grid for atomic number  46.
 Defaulting to unpruned grid for atomic number  46.
 Defaulting to unpruned grid for atomic number  46.
 Defaulting to unpruned grid for atomic number  46.
 Defaulting to unpruned grid for atomic number  46.
 Defaulting to unpruned grid for atomic number  46.
 Defaulting to unpruned grid for atomic number  46.
 Inv3:  Mode=1 IEnd=     5338668.
 Iteration    1 A*A^-1 deviation from unit magnitude is 3.33D-15 for     27.
 Iteration    1 A*A^-1 deviation from orthogonality  is 2.07D-15 for    515     30.
 Iteration    1 A^-1*A deviation from unit magnitude is 3.11D-15 for     27.
 Iteration    1 A^-1*A deviation from orthogonality  is 1.57D-15 for    423     66.
 Error on total polarization charges =  0.02240
 SCF Done:  E(RB3LYP) =  -890.711733362     A.U. after   18 cycles
            NFock= 18  Conv=0.56D-08     -V/T= 2.1043
 SMD-CDS (non-electrostatic) energy       (kcal/mol) =      11.13
 (included in total energy above)
   1 Symmetry operations used in ECPInt.
 ECPInt:  NShTT=     861 NPrTT=    6046 LenC2=     814 LenP2D=    3929.
 LDataN:  DoStor=T MaxTD1= 6 Len=  172
 D1PCM: PCM CHGder 1st derivatives, ID1Alg=3 FixD1E=F DoIter=F DoCFld=F I1PDM=0.
 Calling FoFJK, ICntrl=      2127 FMM=F ISym2X=0 I1Cent= 0 IOpClX= 0 NMat=1 NMatS=1 NMatT=0.
 Defaulting to unpruned grid for atomic number  46.
 Defaulting to unpruned grid for atomic number  46.
 Defaulting to unpruned grid for atomic number  46.
 Defaulting to unpruned grid for atomic number  46.
 Defaulting to unpruned grid for atomic number  46.
 Defaulting to unpruned grid for atomic number  46.
 Defaulting to unpruned grid for atomic number  46.
 Defaulting to unpruned grid for atomic number  46.
 Defaulting to unpruned grid for atomic number  46.
 Defaulting to unpruned grid for atomic number  46.
 Defaulting to unpruned grid for atomic number  46.
 Defaulting to unpruned grid for atomic number  46.
 Defaulting to unpruned grid for atomic number  46.
 Defaulting to unpruned grid for atomic number  46.
 Defaulting to unpruned grid for atomic number  46.
 Defaulting to unpruned grid for atomic number  46.
 Defaulting to unpruned grid for atomic number  46.
 Defaulting to unpruned grid for atomic number  46.
 Defaulting to unpruned grid for atomic number  46.
 Defaulting to unpruned grid for atomic number  46.
 Defaulting to unpruned grid for atomic number  46.
 Defaulting to unpruned grid for atomic number  46.
 Defaulting to unpruned grid for atomic number  46.
 Defaulting to unpruned grid for atomic number  46.
 Defaulting to unpruned grid for atomic number  46.
 Defaulting to unpruned grid for atomic number  46.
 Defaulting to unpruned grid for atomic number  46.
 Defaulting to unpruned grid for atomic number  46.
 Defaulting to unpruned grid for atomic number  46.
 Defaulting to unpruned grid for atomic number  46.
 Defaulting to unpruned grid for atomic number  46.
 Defaulting to unpruned grid for atomic number  46.
 Defaulting to unpruned grid for atomic number  46.
 Defaulting to unpruned grid for atomic number  46.
 Defaulting to unpruned grid for atomic number  46.
 Defaulting to unpruned grid for atomic number  46.
 Defaulting to unpruned grid for atomic number  46.
 Defaulting to unpruned grid for atomic number  46.
 Defaulting to unpruned grid for atomic number  46.
 Defaulting to unpruned grid for atomic number  46.
 Defaulting to unpruned grid for atomic number  46.
 Defaulting to unpruned grid for atomic number  46.
 Defaulting to unpruned grid for atomic number  46.
 Defaulting to unpruned grid for atomic number  46.
 Defaulting to unpruned grid for atomic number  46.
 Defaulting to unpruned grid for atomic number  46.
 Defaulting to unpruned grid for atomic number  46.
 Defaulting to unpruned grid for atomic number  46.
 Defaulting to unpruned grid for atomic number  46.
 Defaulting to unpruned grid for atomic number  46.
 Defaulting to unpruned grid for atomic number  46.
 Defaulting to unpruned grid for atomic number  46.
 Defaulting to unpruned grid for atomic number  46.
 Defaulting to unpruned grid for atomic number  46.
 Defaulting to unpruned grid for atomic number  46.
 Defaulting to unpruned grid for atomic number  46.
 Defaulting to unpruned grid for atomic number  46.
 Defaulting to unpruned grid for atomic number  46.
 Defaulting to unpruned grid for atomic number  46.
 Defaulting to unpruned grid for atomic number  46.
 -------------------------------------------------------------------
 Center     Atomic                   Forces (Hartrees/Bohr)
 Number     Number              X              Y              Z
 -------------------------------------------------------------------
      1        6           0.004152837   -0.003126041    0.002741629
      2        1          -0.001496615   -0.002753575   -0.001288348
      3        6          -0.005625603    0.006373015   -0.004638417
      4        1           0.004718538   -0.002812418    0.005123243
      5       17           0.000153962    0.001215829    0.000769873
      6        6          -0.003361928    0.002303739   -0.002402577
      7        8          -0.000176987    0.001519147   -0.001128362
      8       46           0.017103018    0.001591094   -0.012668555
      9        6          -0.016350537   -0.004714821    0.014214270
     10        8           0.000883315    0.000404033   -0.000722755
 -------------------------------------------------------------------
 Cartesian Forces:  Max     0.017103018 RMS     0.006252795

 GradGradGradGradGradGradGradGradGradGradGradGradGradGradGradGradGradGrad
 Berny optimization.
 Using GEDIIS/GDIIS optimizer.
 FormGI is forming the generalized inverse of G from B-inverse, IUseBI=4.
 Internal  Forces:  Max     0.021041935 RMS     0.005666332
 Search for a local minimum.
 Step number   2 out of a maximum of   85
 All quantities printed in internal units (Hartrees-Bohrs-Radians)
 Mixed Optimization -- RFO/linear search
 Update second derivatives using D2CorX and points    1    2
 DE= -1.41D-03 DEPred=-4.05D-03 R= 3.47D-01
 Trust test= 3.47D-01 RLast= 3.16D-01 DXMaxT set to 3.00D-01
 ITU=  0  0
 Use linear search instead of GDIIS.
     Eigenvalues ---    0.00227   0.00230   0.00230   0.00230   0.00230
     Eigenvalues ---    0.00241   0.00400   0.03527   0.03960   0.05299
     Eigenvalues ---    0.05359   0.06147   0.07570   0.09101   0.12257
     Eigenvalues ---    0.15990   0.17997   0.21914   0.24983   0.29532
     Eigenvalues ---    0.36298   0.84307   1.51822   1.51994
 RFO step:  Lambda=-1.49846552D-02 EMin= 2.27360156D-03
 Quartic linear search produced a step of -0.29889.
 Maximum step size (   0.300) exceeded in Quadratic search.
    -- Step size scaled by   0.548
 Iteration  1 RMS(Cart)=  0.01427852 RMS(Int)=  0.59491296
 Iteration  2 RMS(Cart)=  0.12972253 RMS(Int)=  0.59161629
 Iteration  3 RMS(Cart)=  0.00955187 RMS(Int)=  0.55494657
 Iteration  4 RMS(Cart)=  0.00704626 RMS(Int)=  0.51732038
 Iteration  5 RMS(Cart)=  0.00689287 RMS(Int)=  0.47975194
 Iteration  6 RMS(Cart)=  0.00644763 RMS(Int)=  0.44231278
 Iteration  7 RMS(Cart)=  0.00586509 RMS(Int)=  0.40515697
 Iteration  8 RMS(Cart)=  0.00560032 RMS(Int)=  0.36881321
 Iteration  9 RMS(Cart)=  0.00589371 RMS(Int)=  0.33503946
 Iteration 10 RMS(Cart)=  0.00554879 RMS(Int)=  0.30886927
 Iteration 11 RMS(Cart)=  0.00328129 RMS(Int)=  0.29643543
 Iteration 12 RMS(Cart)=  0.00155045 RMS(Int)=  0.29122029
 Iteration 13 RMS(Cart)=  0.00114131 RMS(Int)=  0.28743850
 Iteration 14 RMS(Cart)=  0.00099821 RMS(Int)=  0.28411741
 Iteration 15 RMS(Cart)=  0.00092693 RMS(Int)=  0.28100187
 Iteration 16 RMS(Cart)=  0.00088394 RMS(Int)=  0.27799082
 Iteration 17 RMS(Cart)=  0.00085490 RMS(Int)=  0.27503113
 Iteration 18 RMS(Cart)=  0.00083365 RMS(Int)=  0.27208735
 Iteration 19 RMS(Cart)=  0.00081764 RMS(Int)=  0.26912908
 Iteration 20 RMS(Cart)=  0.00080526 RMS(Int)=  0.26612220
 Iteration 21 RMS(Cart)=  0.00079588 RMS(Int)=  0.26301715
 Iteration 22 RMS(Cart)=  0.00078944 RMS(Int)=  0.25972157
 Iteration 23 RMS(Cart)=  0.00078710 RMS(Int)=  0.25600176
 Iteration 24 RMS(Cart)=  0.00079131 RMS(Int)=  0.25080486
 Iteration 25 RMS(Cart)=  0.00081745 RMS(Int)=  0.33125208
 Iteration 26 RMS(Cart)=  0.00897318 RMS(Int)=  0.33101530
 Iteration 27 RMS(Cart)=  0.00146009 RMS(Int)=  0.29420074
 Iteration 28 RMS(Cart)=  0.00103071 RMS(Int)=  0.29002217
 Iteration 29 RMS(Cart)=  0.00085095 RMS(Int)=  0.28663295
 Iteration 30 RMS(Cart)=  0.00078550 RMS(Int)=  0.28350769
 Iteration 31 RMS(Cart)=  0.00075219 RMS(Int)=  0.28049947
 Iteration 32 RMS(Cart)=  0.00073219 RMS(Int)=  0.27754221
 Iteration 33 RMS(Cart)=  0.00071903 RMS(Int)=  0.27459452
 Iteration 34 RMS(Cart)=  0.00070998 RMS(Int)=  0.27162072
 Iteration 35 RMS(Cart)=  0.00070380 RMS(Int)=  0.26857843
 Iteration 36 RMS(Cart)=  0.00070007 RMS(Int)=  0.26540002
 Iteration 37 RMS(Cart)=  0.00069907 RMS(Int)=  0.26194140
 Iteration 38 RMS(Cart)=  0.00070258 RMS(Int)=  0.25774111
 Iteration 39 RMS(Cart)=  0.00071640 RMS(Int)=  0.24788303
 Iteration 40 RMS(Cart)=  0.00080913 RMS(Int)=  0.34525613
 Iteration 41 RMS(Cart)=  0.01172097 RMS(Int)=  0.34396017
 Iteration 42 RMS(Cart)=  0.00212972 RMS(Int)=  0.30667555
 Iteration 43 RMS(Cart)=  0.00266374 RMS(Int)=  0.29416980
 Iteration 44 RMS(Cart)=  0.00112480 RMS(Int)=  0.28982658
 Iteration 45 RMS(Cart)=  0.00091384 RMS(Int)=  0.28636337
 Iteration 46 RMS(Cart)=  0.00083684 RMS(Int)=  0.28319816
 Iteration 47 RMS(Cart)=  0.00079767 RMS(Int)=  0.28016790
 Iteration 48 RMS(Cart)=  0.00077434 RMS(Int)=  0.27720111
 Iteration 49 RMS(Cart)=  0.00075918 RMS(Int)=  0.27425516
 Iteration 50 RMS(Cart)=  0.00074888 RMS(Int)=  0.27129603
 Iteration 51 RMS(Cart)=  0.00074189 RMS(Int)=  0.26828706
 Iteration 52 RMS(Cart)=  0.00073753 RMS(Int)=  0.26517553
 Iteration 53 RMS(Cart)=  0.00073579 RMS(Int)=  0.26186215
 Iteration 54 RMS(Cart)=  0.00073833 RMS(Int)=  0.25808734
 Iteration 55 RMS(Cart)=  0.00074761 RMS(Int)=  0.25256936
 Iteration 56 RMS(Cart)=  0.00078274 RMS(Int)=  0.33478205
 Iteration 57 RMS(Cart)=  0.00981351 RMS(Int)=  0.33435649
 Iteration 58 RMS(Cart)=  0.00160213 RMS(Int)=  0.29743033
 Iteration 59 RMS(Cart)=  0.00133574 RMS(Int)=  0.29191806
 Iteration 60 RMS(Cart)=  0.00092819 RMS(Int)=  0.28825087
 Iteration 61 RMS(Cart)=  0.00082355 RMS(Int)=  0.28501620
 Iteration 62 RMS(Cart)=  0.00077637 RMS(Int)=  0.28195700
 Iteration 63 RMS(Cart)=  0.00074971 RMS(Int)=  0.27897852
 Iteration 64 RMS(Cart)=  0.00073267 RMS(Int)=  0.27603028
 Iteration 65 RMS(Cart)=  0.00072100 RMS(Int)=  0.27307558
 Iteration 66 RMS(Cart)=  0.00071279 RMS(Int)=  0.27007768
 Iteration 67 RMS(Cart)=  0.00070721 RMS(Int)=  0.26698651
 Iteration 68 RMS(Cart)=  0.00070412 RMS(Int)=  0.26371169
 Iteration 69 RMS(Cart)=  0.00070448 RMS(Int)=  0.26002940
 Iteration 70 RMS(Cart)=  0.00071064 RMS(Int)=  0.25496313
 Iteration 71 RMS(Cart)=  0.00073615 RMS(Int)=  0.32347597
 Iteration 72 RMS(Cart)=  0.00673551 RMS(Int)=  0.32323118
 Iteration 73 RMS(Cart)=  0.00125671 RMS(Int)=  0.28678849
 Iteration 74 RMS(Cart)=  0.00075625 RMS(Int)=  0.28364901
 Iteration 75 RMS(Cart)=  0.00072750 RMS(Int)=  0.28063579
 Iteration 76 RMS(Cart)=  0.00071198 RMS(Int)=  0.27767684
 Iteration 77 RMS(Cart)=  0.00070302 RMS(Int)=  0.27472885
 Iteration 78 RMS(Cart)=  0.00069805 RMS(Int)=  0.27175533
 Iteration 79 RMS(Cart)=  0.00069586 RMS(Int)=  0.26871345
 Iteration 80 RMS(Cart)=  0.00069604 RMS(Int)=  0.26553526
 Iteration 81 RMS(Cart)=  0.00069913 RMS(Int)=  0.26207603
 Iteration 82 RMS(Cart)=  0.00070661 RMS(Int)=  0.25787196
 Iteration 83 RMS(Cart)=  0.00072522 RMS(Int)=  0.24794687
 Iteration 84 RMS(Cart)=  0.00082990 RMS(Int)=  0.34519583
 Iteration 85 RMS(Cart)=  0.01199199 RMS(Int)=  0.34379656
 Iteration 86 RMS(Cart)=  0.00201373 RMS(Int)=  0.30645609
 Iteration 87 RMS(Cart)=  0.00268084 RMS(Int)=  0.29442585
 Iteration 88 RMS(Cart)=  0.00113657 RMS(Int)=  0.29012400
 Iteration 89 RMS(Cart)=  0.00092265 RMS(Int)=  0.28667362
 Iteration 90 RMS(Cart)=  0.00084242 RMS(Int)=  0.28351444
 Iteration 91 RMS(Cart)=  0.00080040 RMS(Int)=  0.28048748
 Iteration 92 RMS(Cart)=  0.00077433 RMS(Int)=  0.27752226
 Iteration 93 RMS(Cart)=  0.00075648 RMS(Int)=  0.27457645
 Iteration 94 RMS(Cart)=  0.00074352 RMS(Int)=  0.27161595
 Iteration 95 RMS(Cart)=  0.00073390 RMS(Int)=  0.26860350
 Iteration 96 RMS(Cart)=  0.00072695 RMS(Int)=  0.26548482
 Iteration 97 RMS(Cart)=  0.00072264 RMS(Int)=  0.26215602
 Iteration 98 RMS(Cart)=  0.00072235 RMS(Int)=  0.25833952
 Iteration 99 RMS(Cart)=  0.00072881 RMS(Int)=  0.25256853
 Iteration100 RMS(Cart)=  0.00076253 RMS(Int)=  0.33651891
 New curvilinear step not converged.
 ITry= 1 IFail=1 DXMaxC= 3.85D-01 DCOld= 1.00D+10 DXMaxT= 3.00D-01 DXLimC= 3.00D+00 Rises=F
 Iteration  1 RMS(Cart)=  0.01311511 RMS(Int)=  0.59477106
 Iteration  2 RMS(Cart)=  0.11746512 RMS(Int)=  0.59241164
 Iteration  3 RMS(Cart)=  0.00845941 RMS(Int)=  0.55582150
 Iteration  4 RMS(Cart)=  0.00618761 RMS(Int)=  0.51817211
 Iteration  5 RMS(Cart)=  0.00606206 RMS(Int)=  0.48055123
 Iteration  6 RMS(Cart)=  0.00567773 RMS(Int)=  0.44304039
 Iteration  7 RMS(Cart)=  0.00516763 RMS(Int)=  0.40579457
 Iteration  8 RMS(Cart)=  0.00492900 RMS(Int)=  0.36934758
 Iteration  9 RMS(Cart)=  0.00518156 RMS(Int)=  0.33546774
 Iteration 10 RMS(Cart)=  0.00488333 RMS(Int)=  0.30919666
 Iteration 11 RMS(Cart)=  0.00289800 RMS(Int)=  0.29667597
 Iteration 12 RMS(Cart)=  0.00137104 RMS(Int)=  0.29142212
 Iteration 13 RMS(Cart)=  0.00100632 RMS(Int)=  0.28762850
 Iteration 14 RMS(Cart)=  0.00087954 RMS(Int)=  0.28429789
 Iteration 15 RMS(Cart)=  0.00081620 RMS(Int)=  0.28117461
 Iteration 16 RMS(Cart)=  0.00077820 RMS(Int)=  0.27815719
 Iteration 17 RMS(Cart)=  0.00075237 RMS(Int)=  0.27519201
 Iteration 18 RMS(Cart)=  0.00073361 RMS(Int)=  0.27224340
 Iteration 19 RMS(Cart)=  0.00071936 RMS(Int)=  0.26928080
 Iteration 20 RMS(Cart)=  0.00070835 RMS(Int)=  0.26626996
 Iteration 21 RMS(Cart)=  0.00069997 RMS(Int)=  0.26316116
 Iteration 22 RMS(Cart)=  0.00069416 RMS(Int)=  0.25986179
 Iteration 23 RMS(Cart)=  0.00069218 RMS(Int)=  0.25613716
 Iteration 24 RMS(Cart)=  0.00069578 RMS(Int)=  0.25092922
 Iteration 25 RMS(Cart)=  0.00071862 RMS(Int)=  0.33117156
 Iteration 26 RMS(Cart)=  0.00792327 RMS(Int)=  0.33089700
 Iteration 27 RMS(Cart)=  0.00128967 RMS(Int)=  0.29399435
 Iteration 28 RMS(Cart)=  0.00091323 RMS(Int)=  0.28977790
 Iteration 29 RMS(Cart)=  0.00075072 RMS(Int)=  0.28637353
 Iteration 30 RMS(Cart)=  0.00069227 RMS(Int)=  0.28323911
 Iteration 31 RMS(Cart)=  0.00066249 RMS(Int)=  0.28022428
 Iteration 32 RMS(Cart)=  0.00064462 RMS(Int)=  0.27726186
 Iteration 33 RMS(Cart)=  0.00063285 RMS(Int)=  0.27431009
 Iteration 34 RMS(Cart)=  0.00062473 RMS(Int)=  0.27133317
 Iteration 35 RMS(Cart)=  0.00061915 RMS(Int)=  0.26828880
 Iteration 36 RMS(Cart)=  0.00061573 RMS(Int)=  0.26510983
 Iteration 37 RMS(Cart)=  0.00061470 RMS(Int)=  0.26165391
 Iteration 38 RMS(Cart)=  0.00061766 RMS(Int)=  0.25746875
 Iteration 39 RMS(Cart)=  0.00062948 RMS(Int)=  0.24794124
 Iteration 40 RMS(Cart)=  0.00070665 RMS(Int)=  0.34504567
 Iteration 41 RMS(Cart)=  0.01021879 RMS(Int)=  0.34372750
 Iteration 42 RMS(Cart)=  0.00185768 RMS(Int)=  0.30635912
 Iteration 43 RMS(Cart)=  0.00227643 RMS(Int)=  0.29426106
 Iteration 44 RMS(Cart)=  0.00098164 RMS(Int)=  0.28993108
 Iteration 45 RMS(Cart)=  0.00079979 RMS(Int)=  0.28647117
 Iteration 46 RMS(Cart)=  0.00073344 RMS(Int)=  0.28330461
 Iteration 47 RMS(Cart)=  0.00069961 RMS(Int)=  0.28027145
 Iteration 48 RMS(Cart)=  0.00067942 RMS(Int)=  0.27730090
 Iteration 49 RMS(Cart)=  0.00066628 RMS(Int)=  0.27435052
 Iteration 50 RMS(Cart)=  0.00065735 RMS(Int)=  0.27138612
 Iteration 51 RMS(Cart)=  0.00065130 RMS(Int)=  0.26837052
 Iteration 52 RMS(Cart)=  0.00064757 RMS(Int)=  0.26524971
 Iteration 53 RMS(Cart)=  0.00064618 RMS(Int)=  0.26192083
 Iteration 54 RMS(Cart)=  0.00064850 RMS(Int)=  0.25811057
 Iteration 55 RMS(Cart)=  0.00065695 RMS(Int)=  0.25240377
 Iteration 56 RMS(Cart)=  0.00069048 RMS(Int)=  0.33616309
 Iteration 57 RMS(Cart)=  0.00895377 RMS(Int)=  0.33561169
 Iteration 58 RMS(Cart)=  0.00146694 RMS(Int)=  0.29858739
 Iteration 59 RMS(Cart)=  0.00133818 RMS(Int)=  0.29221801
 Iteration 60 RMS(Cart)=  0.00084728 RMS(Int)=  0.28842317
 Iteration 61 RMS(Cart)=  0.00073888 RMS(Int)=  0.28513885
 Iteration 62 RMS(Cart)=  0.00069214 RMS(Int)=  0.28205415
 Iteration 63 RMS(Cart)=  0.00066621 RMS(Int)=  0.27906158
 Iteration 64 RMS(Cart)=  0.00064977 RMS(Int)=  0.27610657
 Iteration 65 RMS(Cart)=  0.00063851 RMS(Int)=  0.27315133
 Iteration 66 RMS(Cart)=  0.00063052 RMS(Int)=  0.27015994
 Iteration 67 RMS(Cart)=  0.00062494 RMS(Int)=  0.26708584
 Iteration 68 RMS(Cart)=  0.00062155 RMS(Int)=  0.26384888
 Iteration 69 RMS(Cart)=  0.00062103 RMS(Int)=  0.26026253
 Iteration 70 RMS(Cart)=  0.00062495 RMS(Int)=  0.25561958
 Iteration 71 RMS(Cart)=  0.00064187 RMS(Int)=  0.20399814
 New curvilinear step failed, DQL= 3.14D+00 SP=-9.91D-01.
 ITry= 2 IFail=1 DXMaxC= 3.52D-01 DCOld= 1.00D+10 DXMaxT= 3.00D-01 DXLimC= 3.00D+00 Rises=F
 Iteration  1 RMS(Cart)=  0.01183420 RMS(Int)=  0.59480392
 Iteration  2 RMS(Cart)=  0.10491734 RMS(Int)=  0.59342426
 Iteration  3 RMS(Cart)=  0.00762306 RMS(Int)=  0.55710982
 Iteration  4 RMS(Cart)=  0.00532737 RMS(Int)=  0.51945109
 Iteration  5 RMS(Cart)=  0.00523206 RMS(Int)=  0.48178416
 Iteration  6 RMS(Cart)=  0.00490870 RMS(Int)=  0.44420927
 Iteration  7 RMS(Cart)=  0.00447118 RMS(Int)=  0.40688066
 Iteration  8 RMS(Cart)=  0.00425437 RMS(Int)=  0.37032552
 Iteration  9 RMS(Cart)=  0.00446677 RMS(Int)=  0.33630000
 Iteration 10 RMS(Cart)=  0.00422677 RMS(Int)=  0.30978810
 Iteration 11 RMS(Cart)=  0.00253567 RMS(Int)=  0.29702080
 Iteration 12 RMS(Cart)=  0.00119404 RMS(Int)=  0.29170633
 Iteration 13 RMS(Cart)=  0.00087253 RMS(Int)=  0.28788791
 Iteration 14 RMS(Cart)=  0.00076097 RMS(Int)=  0.28454393
 Iteration 15 RMS(Cart)=  0.00070565 RMS(Int)=  0.28141179
 Iteration 16 RMS(Cart)=  0.00067238 RMS(Int)=  0.27838759
 Iteration 17 RMS(Cart)=  0.00064985 RMS(Int)=  0.27541696
 Iteration 18 RMS(Cart)=  0.00063349 RMS(Int)=  0.27246392
 Iteration 19 RMS(Cart)=  0.00062108 RMS(Int)=  0.26949771
 Iteration 20 RMS(Cart)=  0.00061148 RMS(Int)=  0.26648404
 Iteration 21 RMS(Cart)=  0.00060418 RMS(Int)=  0.26337332
 Iteration 22 RMS(Cart)=  0.00059915 RMS(Int)=  0.26007340
 Iteration 23 RMS(Cart)=  0.00059705 RMS(Int)=  0.25635243
 Iteration 24 RMS(Cart)=  0.00060002 RMS(Int)=  0.25117413
 Iteration 25 RMS(Cart)=  0.00061947 RMS(Int)=  0.32980847
 Iteration 26 RMS(Cart)=  0.00662101 RMS(Int)=  0.32951188
 Iteration 27 RMS(Cart)=  0.00107849 RMS(Int)=  0.29253549
 Iteration 28 RMS(Cart)=  0.00073433 RMS(Int)=  0.28861775
 Iteration 29 RMS(Cart)=  0.00063047 RMS(Int)=  0.28529699
 Iteration 30 RMS(Cart)=  0.00058826 RMS(Int)=  0.28219537
 Iteration 31 RMS(Cart)=  0.00056597 RMS(Int)=  0.27919362
 Iteration 32 RMS(Cart)=  0.00055218 RMS(Int)=  0.27623314
 Iteration 33 RMS(Cart)=  0.00054297 RMS(Int)=  0.27327466
 Iteration 34 RMS(Cart)=  0.00053660 RMS(Int)=  0.27028174
 Iteration 35 RMS(Cart)=  0.00053229 RMS(Int)=  0.26720787
 Iteration 36 RMS(Cart)=  0.00052986 RMS(Int)=  0.26397377
 Iteration 37 RMS(Cart)=  0.00052970 RMS(Int)=  0.26039675
 Iteration 38 RMS(Cart)=  0.00053341 RMS(Int)=  0.25579481
 Iteration 39 RMS(Cart)=  0.00054797 RMS(Int)=  0.21949398
 New curvilinear step failed, DQL= 3.14D+00 SP=-9.95D-01.
 ITry= 3 IFail=1 DXMaxC= 3.18D-01 DCOld= 1.00D+10 DXMaxT= 3.00D-01 DXLimC= 3.00D+00 Rises=F
 Iteration  1 RMS(Cart)=  0.01056451 RMS(Int)=  0.58614506
 Iteration  2 RMS(Cart)=  0.09370501 RMS(Int)=  0.58396449
 Iteration  3 RMS(Cart)=  0.00543793 RMS(Int)=  0.54720125
 Iteration  4 RMS(Cart)=  0.00427943 RMS(Int)=  0.50946963
 Iteration  5 RMS(Cart)=  0.00402221 RMS(Int)=  0.47177915
 Iteration  6 RMS(Cart)=  0.00370142 RMS(Int)=  0.43419048
 Iteration  7 RMS(Cart)=  0.00353312 RMS(Int)=  0.39691454
 Iteration  8 RMS(Cart)=  0.00377968 RMS(Int)=  0.36067356
 Iteration  9 RMS(Cart)=  0.00412015 RMS(Int)=  0.32781278
 Iteration 10 RMS(Cart)=  0.00351930 RMS(Int)=  0.30435158
 Iteration 11 RMS(Cart)=  0.00179098 RMS(Int)=  0.29447425
 Iteration 12 RMS(Cart)=  0.00092524 RMS(Int)=  0.28972413
 Iteration 13 RMS(Cart)=  0.00071610 RMS(Int)=  0.28605788
 Iteration 14 RMS(Cart)=  0.00063438 RMS(Int)=  0.28277497
 Iteration 15 RMS(Cart)=  0.00059069 RMS(Int)=  0.27967141
 Iteration 16 RMS(Cart)=  0.00056285 RMS(Int)=  0.27666011
 Iteration 17 RMS(Cart)=  0.00054311 RMS(Int)=  0.27369284
 Iteration 18 RMS(Cart)=  0.00052814 RMS(Int)=  0.27073556
 Iteration 19 RMS(Cart)=  0.00051628 RMS(Int)=  0.26775724
 Iteration 20 RMS(Cart)=  0.00050671 RMS(Int)=  0.26472078
 Iteration 21 RMS(Cart)=  0.00049906 RMS(Int)=  0.26156897
 Iteration 22 RMS(Cart)=  0.00049334 RMS(Int)=  0.25818761
 Iteration 23 RMS(Cart)=  0.00049055 RMS(Int)=  0.25425547
 Iteration 24 RMS(Cart)=  0.00049262 RMS(Int)=  0.24780898
 Iteration 25 RMS(Cart)=  0.00051652 RMS(Int)=  0.34296372
 Iteration 26 RMS(Cart)=  0.00714297 RMS(Int)=  0.34212580
 Iteration 27 RMS(Cart)=  0.00128369 RMS(Int)=  0.30498689
 Iteration 28 RMS(Cart)=  0.00147281 RMS(Int)=  0.29427886
 Iteration 29 RMS(Cart)=  0.00067949 RMS(Int)=  0.29007858
 Iteration 30 RMS(Cart)=  0.00056448 RMS(Int)=  0.28665115
 Iteration 31 RMS(Cart)=  0.00052102 RMS(Int)=  0.28349542
 Iteration 32 RMS(Cart)=  0.00049857 RMS(Int)=  0.28046397
 Iteration 33 RMS(Cart)=  0.00048508 RMS(Int)=  0.27748985
 Iteration 34 RMS(Cart)=  0.00047614 RMS(Int)=  0.27453167
 Iteration 35 RMS(Cart)=  0.00046921 RMS(Int)=  0.27155516
 Iteration 36 RMS(Cart)=  0.00046502 RMS(Int)=  0.26852129
 Iteration 37 RMS(Cart)=  0.00046563 RMS(Int)=  0.26536832
 Iteration 38 RMS(Cart)=  0.00046524 RMS(Int)=  0.26197826
 Iteration 39 RMS(Cart)=  0.00046729 RMS(Int)=  0.25801000
 Iteration 40 RMS(Cart)=  0.00047510 RMS(Int)=  0.25121319
 Iteration 41 RMS(Cart)=  0.00050973 RMS(Int)=  0.34013814
 Iteration 42 RMS(Cart)=  0.00710105 RMS(Int)=  0.33911105
 Iteration 43 RMS(Cart)=  0.00117886 RMS(Int)=  0.30177789
 Iteration 44 RMS(Cart)=  0.00133459 RMS(Int)=  0.29267158
 Iteration 45 RMS(Cart)=  0.00067101 RMS(Int)=  0.28859060
 Iteration 46 RMS(Cart)=  0.00056324 RMS(Int)=  0.28520124
 Iteration 47 RMS(Cart)=  0.00052025 RMS(Int)=  0.28206319
 Iteration 48 RMS(Cart)=  0.00049715 RMS(Int)=  0.27904078
 Iteration 49 RMS(Cart)=  0.00048266 RMS(Int)=  0.27607048
 Iteration 50 RMS(Cart)=  0.00047271 RMS(Int)=  0.27311183
 Iteration 51 RMS(Cart)=  0.00046553 RMS(Int)=  0.27012990
 Iteration 52 RMS(Cart)=  0.00046029 RMS(Int)=  0.26708353
 Iteration 53 RMS(Cart)=  0.00045669 RMS(Int)=  0.26390804
 Iteration 54 RMS(Cart)=  0.00045486 RMS(Int)=  0.26046874
 Iteration 55 RMS(Cart)=  0.00045593 RMS(Int)=  0.25635190
 Iteration 56 RMS(Cart)=  0.00046294 RMS(Int)=  0.24797970
 Iteration 57 RMS(Cart)=  0.00050748 RMS(Int)=  0.34451433
 Iteration 58 RMS(Cart)=  0.00727563 RMS(Int)=  0.34322957
 Iteration 59 RMS(Cart)=  0.00132015 RMS(Int)=  0.30578304
 Iteration 60 RMS(Cart)=  0.00155273 RMS(Int)=  0.29449297
 Iteration 61 RMS(Cart)=  0.00069706 RMS(Int)=  0.29022305
 Iteration 62 RMS(Cart)=  0.00057372 RMS(Int)=  0.28677110
 Iteration 63 RMS(Cart)=  0.00052764 RMS(Int)=  0.28360374
 Iteration 64 RMS(Cart)=  0.00050400 RMS(Int)=  0.28056635
 Iteration 65 RMS(Cart)=  0.00048988 RMS(Int)=  0.27758970
 Iteration 66 RMS(Cart)=  0.00048069 RMS(Int)=  0.27463161
 Iteration 67 RMS(Cart)=  0.00047447 RMS(Int)=  0.27165758
 Iteration 68 RMS(Cart)=  0.00047028 RMS(Int)=  0.26862927
 Iteration 69 RMS(Cart)=  0.00046778 RMS(Int)=  0.26548990
 Iteration 70 RMS(Cart)=  0.00046701 RMS(Int)=  0.26212867
 Iteration 71 RMS(Cart)=  0.00046890 RMS(Int)=  0.25824069
 Iteration 72 RMS(Cart)=  0.00047577 RMS(Int)=  0.25206377
 Iteration 73 RMS(Cart)=  0.00050303 RMS(Int)=  0.33813137
 Iteration 74 RMS(Cart)=  0.00683244 RMS(Int)=  0.33730868
 Iteration 75 RMS(Cart)=  0.00112779 RMS(Int)=  0.30011294
 Iteration 76 RMS(Cart)=  0.00117043 RMS(Int)=  0.29225971
 Iteration 77 RMS(Cart)=  0.00064753 RMS(Int)=  0.28828991
 Iteration 78 RMS(Cart)=  0.00055192 RMS(Int)=  0.28493846
 Iteration 79 RMS(Cart)=  0.00051263 RMS(Int)=  0.28181815
 Iteration 80 RMS(Cart)=  0.00049125 RMS(Int)=  0.27880454
 Iteration 81 RMS(Cart)=  0.00047779 RMS(Int)=  0.27583757
 Iteration 82 RMS(Cart)=  0.00046855 RMS(Int)=  0.27287781
 Iteration 83 RMS(Cart)=  0.00046191 RMS(Int)=  0.26988992
 Iteration 84 RMS(Cart)=  0.00045714 RMS(Int)=  0.26683063
 Iteration 85 RMS(Cart)=  0.00045399 RMS(Int)=  0.26362946
 Iteration 86 RMS(Cart)=  0.00045267 RMS(Int)=  0.26013303
 Iteration 87 RMS(Cart)=  0.00045442 RMS(Int)=  0.25583241
 Iteration 88 RMS(Cart)=  0.00046324 RMS(Int)=  0.24410470
 Iteration 89 RMS(Cart)=  0.00053666 RMS(Int)=  0.34908729
 Iteration 90 RMS(Cart)=  0.00782683 RMS(Int)=  0.34750946
 Iteration 91 RMS(Cart)=  0.00143816 RMS(Int)=  0.31004990
 Iteration 92 RMS(Cart)=  0.00192228 RMS(Int)=  0.29544094
 Iteration 93 RMS(Cart)=  0.00076290 RMS(Int)=  0.29085116
 Iteration 94 RMS(Cart)=  0.00060281 RMS(Int)=  0.28730169
 Iteration 95 RMS(Cart)=  0.00054666 RMS(Int)=  0.28408977
 Iteration 96 RMS(Cart)=  0.00051854 RMS(Int)=  0.28102958
 Iteration 97 RMS(Cart)=  0.00050183 RMS(Int)=  0.27804244
 Iteration 98 RMS(Cart)=  0.00049091 RMS(Int)=  0.27508311
 Iteration 99 RMS(Cart)=  0.00048336 RMS(Int)=  0.27211696
 Iteration100 RMS(Cart)=  0.00047808 RMS(Int)=  0.26910835
 New curvilinear step not converged.
 ITry= 4 IFail=1 DXMaxC= 2.90D-01 DCOld= 1.00D+10 DXMaxT= 3.00D-01 DXLimC= 3.00D+00 Rises=F
 Iteration  1 RMS(Cart)=  0.00931065 RMS(Int)=  0.03355431
 Iteration  2 RMS(Cart)=  0.00016039 RMS(Int)=  0.03349006
 Iteration  3 RMS(Cart)=  0.00015927 RMS(Int)=  0.03342626
 Iteration  4 RMS(Cart)=  0.00015815 RMS(Int)=  0.03336290
 Iteration  5 RMS(Cart)=  0.00015704 RMS(Int)=  0.03329999
 Iteration  6 RMS(Cart)=  0.00015594 RMS(Int)=  0.03323751
 Iteration  7 RMS(Cart)=  0.00015486 RMS(Int)=  0.03317548
 Iteration  8 RMS(Cart)=  0.00015378 RMS(Int)=  0.03311387
 Iteration  9 RMS(Cart)=  0.00015271 RMS(Int)=  0.03305269
 Iteration 10 RMS(Cart)=  0.00015164 RMS(Int)=  0.03299194
 Iteration 11 RMS(Cart)=  0.00015058 RMS(Int)=  0.03293162
 Iteration 12 RMS(Cart)=  0.00014951 RMS(Int)=  0.03287173
 Iteration 13 RMS(Cart)=  0.00014837 RMS(Int)=  0.59387690
 Iteration 14 RMS(Cart)=  0.07759375 RMS(Int)=  0.59337253
 Iteration 15 RMS(Cart)=  0.00481769 RMS(Int)=  0.55824909
 Iteration 16 RMS(Cart)=  0.00350695 RMS(Int)=  0.52057279
 Iteration 17 RMS(Cart)=  0.00332905 RMS(Int)=  0.48283585
 Iteration 18 RMS(Cart)=  0.00307543 RMS(Int)=  0.44516280
 Iteration 19 RMS(Cart)=  0.00287640 RMS(Int)=  0.40770046
 Iteration 20 RMS(Cart)=  0.00297089 RMS(Int)=  0.37095737
 Iteration 21 RMS(Cart)=  0.00329534 RMS(Int)=  0.33661345
 Iteration 22 RMS(Cart)=  0.00312197 RMS(Int)=  0.30950354
 Iteration 23 RMS(Cart)=  0.00187281 RMS(Int)=  0.29606242
 Iteration 24 RMS(Cart)=  0.00085850 RMS(Int)=  0.29057366
 Iteration 25 RMS(Cart)=  0.00061308 RMS(Int)=  0.28670270
 Iteration 26 RMS(Cart)=  0.00052929 RMS(Int)=  0.28333217
 Iteration 27 RMS(Cart)=  0.00048758 RMS(Int)=  0.28018303
 Iteration 28 RMS(Cart)=  0.00046210 RMS(Int)=  0.27714647
 Iteration 29 RMS(Cart)=  0.00044449 RMS(Int)=  0.27416631
 Iteration 30 RMS(Cart)=  0.00043135 RMS(Int)=  0.27120570
 Iteration 31 RMS(Cart)=  0.00042104 RMS(Int)=  0.26823348
 Iteration 32 RMS(Cart)=  0.00041274 RMS(Int)=  0.26521526
 Iteration 33 RMS(Cart)=  0.00040606 RMS(Int)=  0.26210164
 Iteration 34 RMS(Cart)=  0.00040090 RMS(Int)=  0.25880141
 Iteration 35 RMS(Cart)=  0.00039787 RMS(Int)=  0.25508639
 Iteration 36 RMS(Cart)=  0.00039791 RMS(Int)=  0.24995357
 Iteration 37 RMS(Cart)=  0.00040810 RMS(Int)=  0.32897600
 Iteration 38 RMS(Cart)=  0.00415084 RMS(Int)=  0.32865029
 Iteration 39 RMS(Cart)=  0.00071865 RMS(Int)=  0.29151676
 Iteration 40 RMS(Cart)=  0.00044448 RMS(Int)=  0.28798262
 Iteration 41 RMS(Cart)=  0.00040554 RMS(Int)=  0.28479005
 Iteration 42 RMS(Cart)=  0.00038739 RMS(Int)=  0.28174241
 Iteration 43 RMS(Cart)=  0.00037756 RMS(Int)=  0.27876074
 Iteration 44 RMS(Cart)=  0.00037163 RMS(Int)=  0.27579900
 Iteration 45 RMS(Cart)=  0.00036801 RMS(Int)=  0.27282065
 Iteration 46 RMS(Cart)=  0.00036594 RMS(Int)=  0.26978543
 Iteration 47 RMS(Cart)=  0.00036517 RMS(Int)=  0.26663323
 Iteration 48 RMS(Cart)=  0.00036578 RMS(Int)=  0.26324456
 Iteration 49 RMS(Cart)=  0.00036842 RMS(Int)=  0.25927844
 Iteration 50 RMS(Cart)=  0.00037556 RMS(Int)=  0.25248943
 Iteration 51 RMS(Cart)=  0.00040444 RMS(Int)=  0.33880837
 Iteration 52 RMS(Cart)=  0.00562190 RMS(Int)=  0.33772960
 Iteration 53 RMS(Cart)=  0.00093525 RMS(Int)=  0.30030877
 Iteration 54 RMS(Cart)=  0.00099261 RMS(Int)=  0.29206166
 Iteration 55 RMS(Cart)=  0.00053317 RMS(Int)=  0.28804105
 Iteration 56 RMS(Cart)=  0.00045163 RMS(Int)=  0.28466882
 Iteration 57 RMS(Cart)=  0.00041845 RMS(Int)=  0.28153679
 Iteration 58 RMS(Cart)=  0.00040046 RMS(Int)=  0.27851571
 Iteration 59 RMS(Cart)=  0.00038913 RMS(Int)=  0.27554395
 Iteration 60 RMS(Cart)=  0.00038134 RMS(Int)=  0.27258156
 Iteration 61 RMS(Cart)=  0.00037572 RMS(Int)=  0.26959331
 Iteration 62 RMS(Cart)=  0.00037164 RMS(Int)=  0.26653675
 Iteration 63 RMS(Cart)=  0.00036888 RMS(Int)=  0.26334378
 Iteration 64 RMS(Cart)=  0.00036759 RMS(Int)=  0.25986896
 Iteration 65 RMS(Cart)=  0.00036875 RMS(Int)=  0.25564557
 Iteration 66 RMS(Cart)=  0.00037520 RMS(Int)=  0.24567679
 Iteration 67 RMS(Cart)=  0.00042253 RMS(Int)=  0.34720807
 Iteration 68 RMS(Cart)=  0.00612101 RMS(Int)=  0.34568937
 Iteration 69 RMS(Cart)=  0.00112339 RMS(Int)=  0.30815076
 Iteration 70 RMS(Cart)=  0.00140957 RMS(Int)=  0.29522730
 Iteration 71 RMS(Cart)=  0.00059103 RMS(Int)=  0.29080076
 Iteration 72 RMS(Cart)=  0.00047712 RMS(Int)=  0.28729678
 Iteration 73 RMS(Cart)=  0.00043572 RMS(Int)=  0.28410327
 Iteration 74 RMS(Cart)=  0.00041478 RMS(Int)=  0.28105097
 Iteration 75 RMS(Cart)=  0.00040217 RMS(Int)=  0.27806577
 Iteration 76 RMS(Cart)=  0.00039394 RMS(Int)=  0.27510402
 Iteration 77 RMS(Cart)=  0.00038829 RMS(Int)=  0.27213112
 Iteration 78 RMS(Cart)=  0.00038440 RMS(Int)=  0.26911007
 Iteration 79 RMS(Cart)=  0.00038190 RMS(Int)=  0.26598801
 Iteration 80 RMS(Cart)=  0.00038074 RMS(Int)=  0.26266589
 Iteration 81 RMS(Cart)=  0.00038193 RMS(Int)=  0.25888580
 Iteration 82 RMS(Cart)=  0.00038648 RMS(Int)=  0.25339190
 Iteration 83 RMS(Cart)=  0.00040481 RMS(Int)=  0.33324968
 Iteration 84 RMS(Cart)=  0.00501243 RMS(Int)=  0.33268701
 Iteration 85 RMS(Cart)=  0.00081968 RMS(Int)=  0.29549473
 Iteration 86 RMS(Cart)=  0.00065466 RMS(Int)=  0.29027889
 Iteration 87 RMS(Cart)=  0.00047393 RMS(Int)=  0.28663973
 Iteration 88 RMS(Cart)=  0.00042356 RMS(Int)=  0.28340364
 Iteration 89 RMS(Cart)=  0.00040020 RMS(Int)=  0.28033515
 Iteration 90 RMS(Cart)=  0.00038677 RMS(Int)=  0.27734417
 Iteration 91 RMS(Cart)=  0.00037809 RMS(Int)=  0.27438143
 Iteration 92 RMS(Cart)=  0.00037208 RMS(Int)=  0.27141010
 Iteration 93 RMS(Cart)=  0.00036782 RMS(Int)=  0.26839225
 Iteration 94 RMS(Cart)=  0.00036491 RMS(Int)=  0.26527472
 Iteration 95 RMS(Cart)=  0.00036332 RMS(Int)=  0.26195880
 Iteration 96 RMS(Cart)=  0.00036361 RMS(Int)=  0.25818979
 Iteration 97 RMS(Cart)=  0.00036719 RMS(Int)=  0.25273404
 Iteration 98 RMS(Cart)=  0.00038287 RMS(Int)=  0.33362028
 Iteration 99 RMS(Cart)=  0.00469312 RMS(Int)=  0.33309551
 Iteration100 RMS(Cart)=  0.00082884 RMS(Int)=  0.29591434
 New curvilinear step not converged.
 ITry= 5 IFail=1 DXMaxC= 2.61D-01 DCOld= 1.00D+10 DXMaxT= 3.00D-01 DXLimC= 3.00D+00 Rises=F
 Iteration  1 RMS(Cart)=  0.00807997 RMS(Int)=  0.02913424
 Iteration  2 RMS(Cart)=  0.00013411 RMS(Int)=  0.02908048
 Iteration  3 RMS(Cart)=  0.00013328 RMS(Int)=  0.02902705
 Iteration  4 RMS(Cart)=  0.00013247 RMS(Int)=  0.02897395
 Iteration  5 RMS(Cart)=  0.00013166 RMS(Int)=  0.02892117
 Iteration  6 RMS(Cart)=  0.00013086 RMS(Int)=  0.02886872
 Iteration  7 RMS(Cart)=  0.00013007 RMS(Int)=  0.02881658
 Iteration  8 RMS(Cart)=  0.00012928 RMS(Int)=  0.02876475
 Iteration  9 RMS(Cart)=  0.00012851 RMS(Int)=  0.02871324
 Iteration 10 RMS(Cart)=  0.00012774 RMS(Int)=  0.02866203
 Iteration 11 RMS(Cart)=  0.00012697 RMS(Int)=  0.02861113
 Iteration 12 RMS(Cart)=  0.00012622 RMS(Int)=  0.02856053
 Iteration 13 RMS(Cart)=  0.00012547 RMS(Int)=  0.02851023
 Iteration 14 RMS(Cart)=  0.00012473 RMS(Int)=  0.02846023
 Iteration 15 RMS(Cart)=  0.00012399 RMS(Int)=  0.02841052
 Iteration 16 RMS(Cart)=  0.00012326 RMS(Int)=  0.02836110
 Iteration 17 RMS(Cart)=  0.00012254 RMS(Int)=  0.02831198
 Iteration 18 RMS(Cart)=  0.00012183 RMS(Int)=  0.02826313
 Iteration 19 RMS(Cart)=  0.00012112 RMS(Int)=  0.02821458
 Iteration 20 RMS(Cart)=  0.00012041 RMS(Int)=  0.02816630
 Iteration 21 RMS(Cart)=  0.00011972 RMS(Int)=  0.02811830
 Iteration 22 RMS(Cart)=  0.00011902 RMS(Int)=  0.02807058
 Iteration 23 RMS(Cart)=  0.00011834 RMS(Int)=  0.02802314
 Iteration 24 RMS(Cart)=  0.00011766 RMS(Int)=  0.02797597
[...]
 Iteration 67 RMS(Cart)=  0.00060697 RMS(Int)=  0.40797144
 Iteration 68 RMS(Cart)=  0.00033354 RMS(Int)=  0.40059030
 Iteration 69 RMS(Cart)=  0.00031054 RMS(Int)=  0.19057193
 Iteration 70 RMS(Cart)=  0.00060037 RMS(Int)=  0.40243755
 Iteration 71 RMS(Cart)=  0.00033051 RMS(Int)=  0.39409737
 Iteration 72 RMS(Cart)=  0.00031081 RMS(Int)=  0.19786200
 Iteration 73 RMS(Cart)=  0.00059161 RMS(Int)=  0.39491398
 Iteration 74 RMS(Cart)=  0.00033594 RMS(Int)=  0.38392909
 Iteration 75 RMS(Cart)=  0.00031831 RMS(Int)=  0.20884828
 Iteration 76 RMS(Cart)=  0.00058874 RMS(Int)=  0.38346840
 Iteration 77 RMS(Cart)=  0.00033760 RMS(Int)=  0.35698829
 Iteration 78 RMS(Cart)=  0.00033070 RMS(Int)=  0.23652414
 Iteration 79 RMS(Cart)=  0.00055229 RMS(Int)=  0.35446484
 Iteration 80 RMS(Cart)=  0.00034806 RMS(Int)=  0.23240645
 Iteration 81 RMS(Cart)=  0.00054483 RMS(Int)=  0.36089152
 Iteration 82 RMS(Cart)=  0.00035754 RMS(Int)=  0.34985681
 Iteration 83 RMS(Cart)=  0.00034018 RMS(Int)=  0.24292544
 Iteration 84 RMS(Cart)=  0.00053963 RMS(Int)=  0.34891757
 Iteration 85 RMS(Cart)=  0.00035485 RMS(Int)=  0.23138130
 Iteration 86 RMS(Cart)=  0.00054426 RMS(Int)=  0.36212781
 Iteration 87 RMS(Cart)=  0.00035897 RMS(Int)=  0.35321985
 Iteration 88 RMS(Cart)=  0.00033983 RMS(Int)=  0.23900884
 Iteration 89 RMS(Cart)=  0.00054321 RMS(Int)=  0.35328754
 Iteration 90 RMS(Cart)=  0.00035406 RMS(Int)=  0.19050067
 Iteration 91 RMS(Cart)=  0.00060730 RMS(Int)=  0.40321024
 Iteration 92 RMS(Cart)=  0.00034101 RMS(Int)=  0.39748914
 Iteration 93 RMS(Cart)=  0.00031976 RMS(Int)=  0.18774074
 Iteration 94 RMS(Cart)=  0.00061373 RMS(Int)=  0.40572764
 Iteration 95 RMS(Cart)=  0.00033634 RMS(Int)=  0.39944614
 Iteration 96 RMS(Cart)=  0.00031571 RMS(Int)=  0.18954663
 Iteration 97 RMS(Cart)=  0.00061327 RMS(Int)=  0.40373234
 Iteration 98 RMS(Cart)=  0.00033462 RMS(Int)=  0.39672077
 Iteration 99 RMS(Cart)=  0.00031463 RMS(Int)=  0.19402499
 Iteration100 RMS(Cart)=  0.00060839 RMS(Int)=  0.39904067
 New curvilinear step not converged.
 ITry= 6 IFail=1 DXMaxC= 4.65D-02 DCOld= 1.00D+10 DXMaxT= 3.00D-01 DXLimC= 3.00D+00 Rises=F
 Iteration  1 RMS(Cart)=  0.00070742 RMS(Int)=  0.57199322
 Iteration  2 RMS(Cart)=  0.00097411 RMS(Int)=  0.56842557
 Iteration  3 RMS(Cart)=  0.00090415 RMS(Int)=  0.56421762
 Iteration  4 RMS(Cart)=  0.00083962 RMS(Int)=  0.55684703
 Iteration  5 RMS(Cart)=  0.00077940 RMS(Int)=  0.03464323
 Iteration  6 RMS(Cart)=  0.00031846 RMS(Int)=  0.55916979
 Iteration  7 RMS(Cart)=  0.00073808 RMS(Int)=  0.55424978
 Iteration  8 RMS(Cart)=  0.00068516 RMS(Int)=  0.50881921
 Iteration  9 RMS(Cart)=  0.00063330 RMS(Int)=  0.08491062
 Iteration 10 RMS(Cart)=  0.00040614 RMS(Int)=  0.50781867
 Iteration 11 RMS(Cart)=  0.00060177 RMS(Int)=  0.50220870
 Iteration 12 RMS(Cart)=  0.00055812 RMS(Int)=  0.08087996
 Iteration 13 RMS(Cart)=  0.00040524 RMS(Int)=  0.51280054
 Iteration 14 RMS(Cart)=  0.00054342 RMS(Int)=  0.50846625
 Iteration 15 RMS(Cart)=  0.00050387 RMS(Int)=  0.49956823
 Iteration 16 RMS(Cart)=  0.00046721 RMS(Int)=  0.09265522
 Iteration 17 RMS(Cart)=  0.00043797 RMS(Int)=  0.50049578
 Iteration 18 RMS(Cart)=  0.00046108 RMS(Int)=  0.49549071
 Iteration 19 RMS(Cart)=  0.00042732 RMS(Int)=  0.31457967
 Iteration 20 RMS(Cart)=  0.00000076 RMS(Int)=  0.27737723
 ITry= 7 IFail=0 DXMaxC= 2.69D-02 DCOld= 1.00D+10 DXMaxT= 3.00D-01 DXLimC= 3.00D+00 Rises=F
 Variable       Old X    -DE/DX   Delta X   Delta X   Delta X     New X
                                 (Linear)    (Quad)   (Total)
    R1        2.08949   0.00028   0.00000   0.00712   0.00207   2.09156
    R2        2.32929   0.00028   0.00000   0.00156   0.00045   2.32974
    R3        4.38181   0.00017   0.00000   0.03403   0.00987   4.39168
    R4        3.99540  -0.00031   0.00000  -0.06379  -0.01849   3.97691
    R5        2.03504   0.00004   0.00000   0.00038   0.00011   2.03515
    R6        2.12990   0.00016   0.00000   0.00013   0.00004   2.12994
    R7        3.86548  -0.00024   0.00000  -0.00298  -0.00086   3.86462
    R8        3.57462  -0.00007   0.00000  -0.00183  -0.00053   3.57409
    R9        2.13446  -0.00020   0.00000  -0.00015  -0.00004   2.13441
    A1        3.14136   0.00031   0.00000   0.04104   0.00023   3.14159
    A2        1.86368  -0.00036   0.00000  -0.01348   0.00152   1.86520
    A3        1.27813   0.00008   0.00000  -0.02461  -0.00174   1.27639
    A4        1.55479   0.00012   0.00000   0.00231   0.00066   1.55545
    A5        1.58949  -0.00011   0.00000  -0.00101  -0.00029   1.58920
    A6        2.94168   0.00005   0.00000   0.01546   0.00449   2.94617
    A7        3.30244  -0.00000   0.00000   0.02458   0.00713   3.30956
    A8        3.15140   0.00007   0.00000   0.00061   0.00018   3.15157
    A9        3.14427   0.00001   0.00000   0.00129   0.00038   3.14465
   A10        3.12559  -0.00004   0.00000  -0.00017  -0.00005   3.12554
   A11        2.77525  -0.00010   0.00000   0.03254   0.00943   2.78468
   A12        3.13869   0.00018   0.00000   0.00835   0.00243   3.14112
   A13        3.16788  -0.00013   0.00000  -0.00272  -0.00079   3.16710
   A14        3.39645  -0.00006   0.00000   0.00818   0.00236   3.39881
   A15        3.15125  -0.00002   0.00000   0.00034   0.00010   3.15134
    D1        2.76171  -0.00000   0.00000   0.28293   1.58075  -1.94072
    D2        1.66345  -0.00005   0.00000  -0.00530   0.00073   1.66419
    D3       -1.47823   0.00007   0.00000   0.01066   0.00083  -1.47740
    D4        1.57904   0.00007   0.00000   0.00484   0.00140   1.58044
         Item               Value     Threshold  Converged?
 Maximum Force            0.000363     0.000450     YES
 RMS     Force            0.000164     0.000300     YES
 Maximum Displacement     0.026893     0.001800     NO 
 RMS     Displacement     0.009020     0.001200     NO 
 Predicted change in Energy=-6.878452D-07
                           ----------------------------
                           ! Non-Optimized Parameters !
                           ! (Angstroms and Degrees)  !
 --------------------------                            --------------------------
 ! Name  Definition              Value          Derivative Info.                !
 --------------------------------------------------------------------------------
 ! R1    R(1,2)                  1.1068         -DE/DX =    0.0003              !
 ! R2    R(1,3)                  1.2328         -DE/DX =    0.0003              !
 ! R3    R(1,8)                  2.324          -DE/DX =    0.0002              !
 ! R4    R(2,5)                  2.1045         -DE/DX =   -0.0003              !
 ! R5    R(3,4)                  1.077          -DE/DX =    0.0                 !
 ! R6    R(6,7)                  1.1271         -DE/DX =    0.0002              !
 ! R7    R(6,8)                  2.0451         -DE/DX =   -0.0002              !
 ! R8    R(8,9)                  1.8913         -DE/DX =   -0.0001              !
 ! R9    R(9,10)                 1.1295         -DE/DX =   -0.0002              !
 ! A1    A(2,1,3)              179.9997         -DE/DX =    0.0003              !
 ! A2    A(2,1,8)              106.8682         -DE/DX =   -0.0004              !
 ! A3    A(3,1,8)               73.1319         -DE/DX =    0.0001              !
 ! A4    A(1,8,9)               89.1208         -DE/DX =    0.0001              !
 ! A5    A(6,8,9)               91.0544         -DE/DX =   -0.0001              !
 ! A6    L(1,2,5,10,-1)        168.8033         -DE/DX =    0.0001              !
 ! A7    L(1,3,4,6,-1)         189.624          -DE/DX =    0.0                 !
 ! A8    L(7,6,8,10,-1)        180.5718         -DE/DX =    0.0001              !
 ! A9    L(1,8,6,9,-1)         180.1752         -DE/DX =    0.0                 !
 ! A10   L(8,9,10,5,-1)        179.0804         -DE/DX =    0.0                 !
 ! A11   L(1,2,5,10,-2)        159.5505         -DE/DX =   -0.0001              !
 ! A12   L(1,3,4,6,-2)         179.9729         -DE/DX =    0.0002              !
 ! A13   L(7,6,8,10,-2)        181.4612         -DE/DX =   -0.0001              !
 ! A14   L(1,8,6,9,-2)         194.7374         -DE/DX =   -0.0001              !
 ! A15   L(8,9,10,5,-2)        180.5587         -DE/DX =    0.0                 !
 ! D1    D(2,1,3,8)           -111.1952         -DE/DX =    0.0                 !
 ! D2    D(2,1,8,9)             95.3509         -DE/DX =    0.0                 !
 ! D3    D(3,1,8,9)            -84.6488         -DE/DX =    0.0001              !
 ! D4    D(9,6,8,1)             90.5526         -DE/DX =    0.0001              !
 --------------------------------------------------------------------------------
 GradGradGradGradGradGradGradGradGradGradGradGradGradGradGradGradGradGrad


 ----------------------------------------------------------------------

 Electric dipole moment (input orientation):
 (Debye = 10**-18 statcoulomb cm , SI units = C m)
                  (au)            (Debye)         (10**-30 SI)
   Tot        0.713602D+01      0.181380D+02      0.605017D+02
   x         -0.153878D+01     -0.391120D+01     -0.130464D+02
   y         -0.324185D+01     -0.823995D+01     -0.274855D+02
   z         -0.616810D+01     -0.156777D+02     -0.522953D+02

 Dipole polarizability, Alpha (input orientation).
 (esu units = cm**3 , SI units = C**2 m**2 J**-1)
 Alpha(0;0):
               (au)            (10**-24 esu)      (10**-40 SI)
   iso        0.157595D+03      0.233532D+02      0.259839D+02
   aniso      0.167823D+03      0.248688D+02      0.276703D+02
   xx         0.123554D+03      0.183088D+02      0.203713D+02
   yx         0.143506D+02      0.212654D+01      0.236610D+01
   yy         0.169649D+03      0.251395D+02      0.279714D+02
   zx         0.537304D+02      0.796203D+01      0.885895D+01
   zy         0.734951D+02      0.108909D+02      0.121177D+02
   zz         0.179582D+03      0.266114D+02      0.296091D+02

 ----------------------------------------------------------------------

 Dipole orientation:
     6          2.54758174         -0.34366802         -1.49650402
     1          2.38652946         -1.55239240         -3.19327559
     6          2.72730548          1.00418035          0.39468123
     1          3.10176483          2.35247403          1.87226449
    17          0.92671394         -4.42193447         -5.55926037
     6         -2.66444449         -4.20283985          3.49002140
     8         -4.06060685         -5.36265237          4.60449609
    46         -0.15557522         -2.02407820          1.51504445
     6          2.60330196         -3.82310417          2.90430477
     8          4.24698484         -4.92378463          3.70599617

 Electric dipole moment (dipole orientation):
 (Debye = 10**-18 statcoulomb cm , SI units = C m)
                  (au)            (Debye)         (10**-30 SI)
   Tot        0.713602D+01      0.181380D+02      0.605017D+02
   x          0.000000D+00      0.000000D+00      0.000000D+00
   y          0.000000D+00      0.000000D+00      0.000000D+00
   z          0.713602D+01      0.181380D+02      0.605017D+02

 Dipole polarizability, Alpha (dipole orientation).
 (esu units = cm**3 , SI units = C**2 m**2 J**-1)
 Alpha(0;0):
               (au)            (10**-24 esu)      (10**-40 SI)
   iso        0.157595D+03      0.233532D+02      0.259839D+02
   aniso      0.167823D+03      0.248688D+02      0.276703D+02
   xx         0.103887D+03      0.153944D+02      0.171286D+02
   yx         0.197131D+02      0.292119D+01      0.325026D+01
   yy         0.113412D+03      0.168059D+02      0.186991D+02
   zx        -0.268989D+02     -0.398600D+01     -0.443502D+01
   zy         0.326534D+02      0.483873D+01      0.538382D+01
   zz         0.255487D+03      0.378593D+02      0.421241D+02

 ----------------------------------------------------------------------
 1\1\GINC-C404-062\Freq\RB3LYP\Gen\C4H2Cl1O2Pd1(1+)\TG856205\25-Jun-201
 9\0\\#N Geom=AllCheck Guess=TCheck SCRF=Check GenChk RB3LYP/ChkBas Fre
 q\\Title Card Required\\1,1\C,1.4757085595,0.4506548518,0.311178586\H,
 1.5526180266,1.4318627211,0.815080076\C,1.3901170821,-0.6432810018,-0.
 2503326707\H,1.4522134817,-1.6434105678,-0.6447766141\Cl,0.9895769612,
 3.3916405687,1.3740179866\C,-1.8899043236,1.2129275569,-2.3026653016\O
 ,-2.7697162221,1.5296324449,-2.93193085\Pd,-0.3094350808,0.5926340391,
 -1.1618199026\C,0.9055370123,1.0285601938,-2.5445705598\O,1.6315573031
 ,1.3081071933,-3.3634294898\\Version=ES64L-G16RevA.03\HF=-890.7176046\
 RMSD=3.441e-09\RMSF=4.790e-04\ZeroPoint=0.0436101\Thermal=0.0543142\Di
 pole=-1.9422848,-5.7723327,-4.2914917\DipoleDeriv=-0.0242236,0.2067701
 ,0.232593,0.5908997,-0.7037439,0.2449254,0.270127,0.0419003,0.3626699,
 0.2805633,0.0413156,0.0675596,-0.1967913,0.5438327,-0.0400439,-0.05697
 8,0.1960705,0.2818934,-0.156229,-0.1883993,-0.0261584,-0.2768361,0.220
 442,-0.1528426,-0.2346788,0.0290792,-0.1832798,0.2743987,0.0981377,0.0
 003885,-0.0673958,0.4893282,0.0111391,-0.0667342,0.1463601,0.2816066,-
 0.8608932,-0.0676072,-0.1054197,-0.0087826,-1.0829282,-0.1897591,-0.04
 4552,-0.1605715,-0.9352984,1.0022466,-0.1596961,0.1523173,-0.3324274,0
 .423554,-0.1557037,0.9403794,0.1614598,1.214167,-0.9550274,0.0592008,-
 0.6718901,0.3560608,-0.0530805,0.2625615,-0.7989564,-0.0488444,-0.7174
 085,0.5106514,-0.4767006,-0.1732348,-0.0776119,0.8605456,0.1850956,0.4
 168124,0.4880111,0.7061602,1.3583618,0.3474159,-0.3885123,0.0870973,0.
 2039274,-0.6604099,-0.7760564,-0.7919477,1.1102209,-0.4298487,0.139563
 1,0.9123569,-0.0742127,0.0981227,0.4950375,0.350637,-0.0615174,-1.1207
 313\Polar=123.553685,14.3506347,169.6494595,53.7304151,73.4951034,179.
 5823257\Quadrupole=8.5979062,-22.1332963,13.53539,-12.0097502,0.113645
 ,-18.1070405\PG=C01 [X(C4H2Cl1O2Pd1)]\NImag=1\\0.04987004,0.07198010,1
 .05163900,0.03736374,0.50825749,0.30680745,-0.02750283,-0.02529041,-0.
 01140444,0.02576972,-0.02330535,-0.24626943,-0.11509040,0.02897685,0.2
 1187087,-0.01051013,-0.11651825,-0.08925539,0.01650121,0.10734575,0.08
 518456,-0.01184777,-0.04362814,-0.01011377,0.00199681,0.00308388,0.001
 17979,0.05742695,-0.06877685,-0.79707674,-0.40590473,-0.00150126,0.022
 23445,0.00797427,0.02848180,1.14421172,-0.01960721,-0.38466418,-0.2072
 3167,-0.00050670,0.01228869,0.00733945,0.01589499,0.51259583,0.2984029
 3,0.00157760,-0.00556296,-0.00292202,0.00454659,-0.00023745,-0.0009255
 2,-0.02235369,0.01985996,0.00941604,0.01855775,0.00118439,0.01034460,0
 .00420661,0.00064989,0.00068493,-0.00127544,0.01637425,-0.35135798,-0.
 13230624,-0.02028467,0.34320336,-0.00050050,-0.00085033,0.00182025,-0.
 00033070,-0.00242578,0.00351808,0.00722821,-0.13031752,-0.07578255,-0.
 00508052,0.12886410,0.06862459,0.00238899,0.00652875,0.00293887,-0.002
 40514,-0.00691964,-0.00260402,0.00020232,0.00228245,0.00148592,-0.0001
 6225,0.00003701,-0.00004669,0.00054925,0.00264132,-0.01559839,-0.00739
 805,-0.00028726,0.00930442,0.00571569,-0.00195051,-0.00644298,-0.00515
 130,-0.00000781,0.00006285,0.00026759,-0.00162193,0.01481048,0.0008958
 5,-0.00421057,0.00189367,0.00024392,0.00136559,-0.00262266,-0.00096349
 ,-0.00153215,-0.00210313,0.00007592,0.00009915,-0.00007336,-0.00044567
 ,0.00628965,0.00498487,-0.00549038,0.01396439,-0.00263337,0.00122266,-
 0.00058740,0.00121861,-0.00695110,-0.00561374,-0.01264296,0.00110446,-
 0.00026376,0.00124337,0.00033862,0.00017931,0.00038044,0.88028274,-0.0
 0345972,0.00039305,-0.00448420,0.00015314,0.00082662,0.00141049,0.0094
 9597,0.00236039,0.00700375,-0.00149855,0.00029754,-0.00174291,0.000290
 86,-0.00011637,0.00007955,-0.30396321,0.15367379,-0.00759914,0.0035294
 3,-0.00143261,0.00069503,0.00152480,0.00126897,-0.00294595,-0.00332505
 ,0.00067209,0.00045647,0.00049821,0.00025014,0.00082451,0.00041709,0.0
 0066930,0.57942678,-0.21553909,0.46165429,0.00061338,0.00158304,0.0017
 7558,0.00024244,-0.00006293,0.00017624,-0.00000617,-0.00140521,-0.0001
 7234,-0.00001411,-0.00043070,-0.00022943,-0.00013254,-0.00047078,-0.00
 028024,-0.82068017,0.28696699,-0.56811932,0.82067647,0.00138902,-0.001
 84302,0.00094438,-0.00024690,-0.00017857,-0.00057226,-0.00197980,0.000
 53529,-0.00080319,0.00029653,0.00011013,0.00040343,-0.00007704,0.00017
 484,0.00003188,0.28763955,-0.12444537,0.20502964,-0.29098719,0.1171234
 8,0.00142934,0.00263509,0.00142841,0.00026286,-0.00077346,-0.00003340,
 -0.00052124,-0.00105871,-0.00228398,0.00007746,-0.00046282,0.00002442,
 -0.00027830,-0.00035209,-0.00029436,-0.56968126,0.20518495,-0.42689763
 ,0.57678745,-0.20767063,0.42358918,-0.01258644,-0.01689817,-0.01088415
 ,-0.00265896,-0.00451754,-0.00592889,-0.01918904,0.02578376,0.00937877
 ,-0.00325930,0.00276716,-0.00259628,-0.00179599,0.00139278,-0.00070227
 ,-0.02971567,0.00989435,-0.00272363,-0.00567323,0.00534358,-0.01113900
 ,0.14938880,0.01514547,-0.00335152,0.01699904,-0.00228993,0.00047073,-
 0.00427559,-0.00774374,-0.01135339,-0.00802683,0.00677715,-0.00274610,
 0.00488503,-0.00040474,-0.00138098,-0.00151951,0.00721206,-0.03538863,
 0.01315778,0.00477845,0.00861050,0.00141038,-0.00435300,0.06911377,-0.
 00221981,-0.00790800,-0.01593796,-0.00633019,0.00308931,-0.00206558,-0
 .00951716,0.01488342,-0.02014305,-0.00066991,-0.00068857,0.00201571,0.
 00016840,-0.00074060,-0.00156930,-0.00007196,0.01178340,-0.05579238,-0
 .00788896,0.00126379,0.00845901,-0.03331016,-0.05293781,0.18277439,0.0
 0449120,-0.00205414,-0.00260639,-0.00075883,0.00206137,0.00053730,0.00
 221962,0.00103871,-0.00211153,-0.00017572,-0.00029948,0.00003219,0.000
 46760,-0.00011038,0.00036839,-0.02627030,0.00326172,0.00033602,0.00706
 390,-0.00192085,0.00341435,-0.07068101,-0.01153916,0.03957815,0.632240
 13,0.00434206,0.00301533,0.00402318,0.00016137,-0.00008697,-0.00007907
 ,-0.00207211,-0.00411334,-0.00089200,0.00075643,-0.00070102,0.00096681
 ,-0.00058890,-0.00112779,-0.00114350,-0.00001568,0.00291737,-0.0062628
 4,0.00028397,-0.00026940,0.00119255,-0.01366621,-0.03057693,0.02553002
 ,0.20854491,0.13324006,-0.00051969,-0.00274765,-0.00101078,0.00033051,
 -0.00649179,-0.00356258,-0.00204668,0.00866518,0.00062071,-0.00035425,
 0.00152595,-0.00013876,-0.00173611,0.00149235,-0.00041950,0.00804666,-
 0.00592691,0.02245474,-0.00354720,0.00193886,-0.00476509,0.04006464,0.
 02366181,-0.08747643,-0.62475105,-0.24741792,0.76077259,-0.00151378,-0
 .00062246,-0.00151405,-0.00045245,0.00150821,0.00035542,-0.00149793,-0
 .00014963,-0.00113499,0.00017867,0.00026590,0.00028035,0.00054915,0.00
 023525,0.00042715,0.00615914,-0.00114155,-0.00035078,-0.00208997,0.000
 54310,-0.00035165,-0.00382915,-0.00758255,0.02026161,-0.54859660,-0.19
 774583,0.58451317,0.55109291,-0.00114043,-0.00125288,-0.00155330,-0.00
 032549,0.00114297,0.00027441,-0.00006161,0.00100259,-0.00004453,-0.000
 09862,0.00010169,-0.00005041,0.00047317,0.00031392,0.00053990,0.001448
 47,-0.00051838,0.00097004,-0.00025563,0.00018212,-0.00010527,-0.005746
 72,0.00660257,0.00572504,-0.19898270,-0.10229731,0.22530012,0.20468956
 ,0.09472271,0.00126753,0.00247697,0.00291862,0.00053851,-0.00083271,0.
 00022854,0.00180530,-0.00198055,0.00050920,-0.00007368,-0.00046095,-0.
 00025852,-0.00030689,-0.00054031,-0.00046553,-0.00528631,0.00223098,-0
 .00284690,0.00149823,-0.00056589,0.00077343,0.01784098,0.00664570,-0.0
 1026441,0.58520258,0.22408277,-0.68647488,-0.60248624,-0.23105601,0.69
 588046\\-0.00189086,-0.00001436,0.00036330,0.00117867,-0.00051800,-0.0
 0049911,0.00075992,0.00025515,-0.00014820,0.00003647,0.00005173,-0.000
 08844,0.00006776,0.00029043,0.00005277,-0.00033549,0.00027831,-0.00008
 498,0.00007556,-0.00006155,0.00015737,0.00013979,-0.00029931,0.0003032
 0,-0.00006079,-0.00001060,0.00014775,0.00002896,0.00002820,-0.00020366
 \\\@


 THE NUMBERS ARE MEANINGLESS, BUT THE TRENDS ARE IMPORTANT.
     -- LARRY BURGGRAF
 Job cpu time:       0 days  1 hours 21 minutes 54.6 seconds.
 Elapsed time:       0 days  0 hours  1 minutes 27.3 seconds.
 File lengths (MBytes):  RWF=     74 Int=      0 D2E=      0 Chk=      6 Scr=      1
 Normal termination of Gaussian 16 at Tue Jun 25 15:59:25 2019.
